# vtk DataFile Version 3.0
File generated from DClib
ASCII

DATASET UNSTRUCTURED_GRID
POINTS 341 float
200 0 0 
195 0 0 
190 0 0 
185 0 0 
199.383 15.6918 0 
189.443 15.4213 0 
180 0 0 
175 0 0 
179.483 14.8081 0 
170 0 0 
197.538 31.2869 0 
192.663 31.0569 0 
187.769 30.6525 0 
169.509 13.9378 0 
182.856 30.0931 0 
165 0 0 
177.928 29.3981 0 
172.986 28.5869 0 
160 0 0 
168.033 27.6788 0 
159.526 12.8962 0 
155 0 0 
163.071 26.6932 0 
194.474 46.6891 0 
184.978 45.6088 0 
158.102 25.6495 0 
150 0 0 
175.33 43.6925 0 
149.538 11.7689 0 
153.129 24.567 0 
165.568 41.149 0 
145 0 0 
148.153 23.4652 0 
155.731 38.1874 0 
140 0 0 
143.178 22.3633 0 
139.549 10.6415 0 
190.211 61.8034 0 
185.681 61.1452 0 
181.08 60.2069 0 
176.415 59.0197 0 
171.695 57.6147 0 
145.855 35.0168 0 
135 0 0 
166.928 56.0229 0 
138.205 21.2809 0 
162.122 54.2755 0 
157.283 52.4037 0 
152.422 50.4385 0 
133.236 20.2372 0 
130 0 0 
129.566 9.59991 0 
147.544 48.4111 0 
135.98 31.8462 0 
142.658 46.3525 0 
128.274 19.2516 0 
125 0 0 
137.773 44.294 0 
184.776 76.5367 0 
176.089 74.365 0 
167.034 71.0898 0 
123.321 18.3435 0 
157.704 66.9872 0 
126.143 28.8846 0 
132.895 42.2666 0 
120 0 0 
119.592 8.72963 0 
148.189 62.3328 0 
128.034 40.3014 0 
118.379 17.5322 0 
138.582 57.4025 0 
115 0 0 
123.195 38.4296 0 
116.381 26.3411 0 
113.451 16.8372 0 
128.975 52.4723 0 
118.389 36.6822 0 
110 0 0 
109.632 8.11641 0 
156.888 81.7209 0 
152.333 79.2146 0 
161.366 84.0454 0 
165.752 86.1517 0 
147.716 76.5629 0 
108.538 16.2779 0 
170.03 88.0035 0 
174.185 89.5644 0 
143.053 73.802 0 
113.622 35.0904 0 
178.201 90.7981 0 
119.46 47.8179 0 
138.36 70.9685 0 
105 0 0 
133.651 68.0986 0 
106.733 24.4248 0 
128.942 65.2287 0 
108.902 33.6854 0 
103.643 15.8735 0 
124.248 62.3951 0 
110.129 43.7152 0 
100 0 0 
119.586 59.6343 0 
99.6917 7.84591 0 
104.237 32.4982 0 
114.969 56.9826 0 
98.7688 15.6434 0 
110.414 54.4763 0 
99.636 31.5599 0 
97.237 23.3445 0 
137.042 84.7807 0 
146.033 90.8913 0 
127.896 78.3748 0 
154.715 96.4115 0 
101.075 40.4401 0 
105.936 52.1518 0 
162.931 101.046 0 
118.75 71.9689 0 
170.528 104.5 0 
95.1057 30.9017 0 
101.55 50.0454 0 
109.759 65.8583 0 
97.2721 48.1936 0 
92.388 38.2683 0 
101.077 60.3381 0 
93.1171 46.6327 0 
125.781 91.705 0 
130.187 95.2059 0 
121.353 88.1678 0 
134.546 98.6343 0 
116.924 84.6306 0 
138.836 101.954 0 
112.518 81.1297 0 
143.032 105.129 0 
89.1007 45.3991 0 
108.159 77.7013 0 
147.112 108.122 0 
92.8607 55.7035 0 
151.052 110.898 0 
103.87 74.3816 0 
154.83 113.42 0 
158.421 115.651 0 
99.6732 71.207 0 
161.803 117.557 0 
95.5933 68.2137 0 
85.264 52.2499 0 
91.6529 65.4379 0 
87.8753 62.916 0 
114.061 97.4172 0 
105.596 89.8161 0 
122.526 105.018 0 
84.2838 60.6841 0 
97.3467 82.4916 0 
130.775 112.343 0 
80.9017 58.7785 0 
89.5275 75.7204 0 
138.594 119.114 0 
145.768 125.055 0 
82.3537 69.7793 0 
152.081 129.89 0 
76.0406 64.9448 0 
98.0321 97.9696 0 
102.034 102.002 0 
94.0903 94.0015 0 
106.066 106.066 0 
90.2388 90.1295 0 
110.098 110.13 0 
86.5077 86.3857 0 
114.1 114.162 0 
82.927 82.8021 0 
118.042 118.131 0 
79.5269 79.4108 0 
121.893 122.002 0 
76.3374 76.2437 0 
125.624 125.746 0 
73.3886 73.333 0 
70.7107 70.7107 0 
129.205 129.33 0 
132.605 132.721 0 
135.795 135.888 0 
138.743 138.799 0 
82.5984 97.2398 0 
89.8771 105.535 0 
75.8426 89.4053 0 
141.421 141.421 0 
97.4172 114.061 0 
69.8709 82.2621 0 
64.9448 76.0406 0 
104.957 122.587 0 
112.236 130.882 0 
118.992 138.716 0 
68.3278 95.4792 0 
65.544 91.5468 0 
71.3184 99.5619 0 
63.0015 87.7898 0 
58.7785 80.9017 0 
60.7349 84.233 0 
74.4814 103.77 0 
77.7823 108.078 0 
81.1867 112.461 0 
124.964 145.86 0 
84.66 116.894 0 
88.1678 121.353 0 
91.6756 125.811 0 
95.1489 130.244 0 
129.89 152.081 0 
98.5532 134.627 0 
101.854 138.935 0 
52.2499 85.264 0 
55.7795 92.7848 0 
105.017 143.143 0 
60.4393 100.976 0 
65.9469 109.67 0 
108.008 147.226 0 
72.0196 118.699 0 
110.792 151.158 0 
78.3748 127.896 0 
113.334 154.915 0 
45.3991 89.1007 0 
84.73 137.093 0 
46.6705 93.0793 0 
115.601 158.472 0 
48.2573 97.2084 0 
50.1244 101.471 0 
117.557 161.803 0 
52.2366 105.851 0 
90.8027 146.122 0 
54.5592 110.331 0 
57.0568 114.895 0 
59.6946 119.525 0 
62.4376 124.206 0 
38.2683 92.388 0 
96.3102 154.816 0 
65.2506 128.92 0 
68.0986 133.651 0 
40.4897 101.025 0 
70.9466 138.382 0 
100.97 163.007 0 
73.7596 143.096 0 
43.7814 110.063 0 
76.5025 147.777 0 
47.8758 119.402 0 
30.9017 95.1057 0 
79.1403 152.407 0 
104.5 170.528 0 
31.5808 99.6151 0 
52.5054 128.942 0 
81.638 156.971 0 
32.5334 104.202 0 
33.7291 108.858 0 
83.9605 161.451 0 
57.4025 138.582 0 
35.1374 113.575 0 
86.0728 165.831 0 
23.3445 97.237 0 
36.7281 118.343 0 
62.2996 148.222 0 
38.4707 123.154 0 
87.9399 170.094 0 
40.3348 128 0 
24.4465 106.711 0 
42.2901 132.872 0 
89.5266 174.223 0 
66.9292 157.762 0 
44.3061 137.761 0 
90.7981 178.201 0 
26.3701 116.352 0 
15.6434 98.7688 0 
46.3525 142.658 0 
71.0236 167.101 0 
15.8797 103.637 0 
48.399 147.556 0 
28.9099 126.117 0 
16.2883 108.528 0 
50.415 152.445 0 
16.8502 113.438 0 
52.3703 157.317 0 
31.8607 135.966 0 
74.3153 176.139 0 
7.84591 99.6917 0 
17.5461 118.365 0 
54.2344 162.163 0 
18.357 123.307 0 
35.0168 145.855 0 
55.977 166.974 0 
8.11919 109.63 0 
19.2637 128.262 0 
76.5367 184.776 0 
57.5677 171.742 0 
0 100 0 
20.247 133.226 0 
38.1729 155.745 0 
8.73335 119.588 0 
0 105 0 
58.976 176.459 0 
21.2878 138.198 0 
22.3669 143.174 0 
0 110 0 
60.1717 181.115 0 
41.1237 165.594 0 
9.60316 129.563 0 
23.4652 148.153 0 
0 115 0 
61.1243 185.702 0 
24.5634 153.132 0 
0 120 0 
43.6635 175.359 0 
61.8034 190.211 0 
10.6434 139.547 0 
25.6425 158.109 0 
0 125 0 
26.6833 163.081 0 
0 130 0 
11.7689 149.538 0 
27.6666 168.045 0 
45.5872 185 0 
0 135 0 
28.5733 172.999 0 
0 140 0 
12.8943 159.528 0 
29.3842 177.941 0 
0 145 0 
46.6891 194.474 0 
30.0802 182.869 0 
0 150 0 
13.9346 169.513 0 
30.6421 187.779 0 
0 155 0 
0 160 0 
31.0507 192.669 0 
14.8044 179.487 0 
0 165 0 
31.2869 197.538 0 
0 170 0 
15.4185 189.446 0 
0 175 0 
0 180 0 
15.6918 199.383 0 
0 185 0 
0 190 0 
0 195 0 
0 200 0 
CELLS 100 900
8 266 272 296 288 269 284 292 278 
8 241 247 272 266 244 259 269 253 
8 217 221 247 241 219 234 244 230 
8 194 193 221 217 195 208 219 207 
8 175 172 193 194 174 185 195 186 
8 153 146 172 175 150 157 174 159 
8 133 121 146 153 124 136 150 144 
8 118 103 121 133 107 113 124 122 
8 105 84 103 118 97 94 107 108 
8 100 77 84 105 92 78 97 102 
8 272 279 304 296 274 291 301 284 
8 247 251 279 272 248 265 274 259 
8 221 224 251 247 222 238 248 234 
8 193 190 224 221 191 210 222 208 
8 172 168 190 193 170 182 191 185 
8 146 143 168 172 145 154 170 157 
8 121 114 143 146 119 123 145 136 
8 103 88 114 121 96 99 119 113 
8 84 69 88 103 74 73 96 94 
8 77 65 69 84 71 66 74 78 
8 279 285 311 304 281 299 309 291 
8 251 256 285 279 254 271 281 265 
8 224 227 256 251 226 240 254 238 
8 190 196 227 224 192 211 226 210 
8 168 164 196 190 166 180 192 182 
8 143 138 164 168 141 151 166 154 
8 114 104 138 143 106 120 141 123 
8 88 72 104 114 76 90 106 99 
8 69 55 72 88 61 63 76 73 
8 65 50 55 69 56 51 61 66 
8 285 294 317 311 289 307 315 299 
8 256 260 294 285 258 276 289 271 
8 227 229 260 256 228 245 258 240 
8 196 198 229 227 197 213 228 211 
8 164 160 198 196 162 181 197 180 
8 138 131 160 164 134 148 162 151 
8 104 98 131 138 101 116 134 120 
8 72 64 98 104 68 75 101 90 
8 55 45 64 72 49 53 68 63 
8 50 34 45 55 43 36 49 51 
8 294 300 323 317 295 312 320 307 
8 260 267 300 294 263 282 295 276 
8 229 233 267 260 232 250 263 245 
8 198 201 233 229 200 215 232 213 
8 160 163 201 198 161 184 200 181 
8 131 127 163 160 129 147 161 148 
8 98 93 127 131 95 111 129 116 
8 64 54 93 98 57 70 95 75 
8 45 32 54 64 35 42 57 53 
8 34 26 32 45 31 28 35 36 
8 300 308 327 323 303 318 326 312 
8 267 273 308 300 270 290 303 282 
8 233 237 273 267 235 255 270 250 
8 201 203 237 233 202 218 235 215 
8 163 167 203 201 165 187 202 184 
8 127 126 167 163 125 149 165 147 
8 93 87 126 127 91 109 125 111 
8 54 48 87 93 52 67 91 70 
8 32 25 48 54 29 33 52 42 
8 26 18 25 32 21 20 29 28 
8 308 313 332 327 310 324 330 318 
8 273 280 313 308 275 298 310 290 
8 237 242 280 273 239 262 275 255 
8 203 206 242 237 205 225 239 218 
8 167 171 206 203 169 188 205 187 
8 126 130 171 167 128 152 169 149 
8 87 80 130 126 83 110 128 109 
8 48 46 80 87 47 62 83 67 
8 25 19 46 48 22 30 47 33 
8 18 9 19 25 15 13 22 20 
8 313 319 335 332 316 329 334 324 
8 280 287 319 313 283 305 316 298 
8 242 249 287 280 246 268 283 262 
8 206 212 249 242 209 231 246 225 
8 171 176 212 206 173 189 209 188 
8 130 135 176 171 132 155 173 152 
8 80 81 135 130 79 112 132 110 
8 46 41 81 80 44 60 79 62 
8 19 16 41 46 17 27 44 30 
8 9 6 16 19 7 8 17 13 
8 319 325 338 335 322 333 337 329 
8 287 297 325 319 293 314 322 305 
8 249 257 297 287 252 277 293 268 
8 212 216 257 249 214 236 252 231 
8 176 178 216 212 177 199 214 189 
8 135 139 178 176 137 156 177 155 
8 81 85 139 135 82 115 137 112 
8 41 39 85 81 40 59 82 60 
8 16 12 39 41 14 24 40 27 
8 6 2 12 16 3 5 14 8 
8 325 331 340 338 328 336 339 333 
8 297 306 331 325 302 321 328 314 
8 257 264 306 297 261 286 302 277 
8 216 223 264 257 220 243 261 236 
8 178 183 223 216 179 204 220 199 
8 139 142 183 178 140 158 179 156 
8 85 89 142 139 86 117 140 115 
8 39 37 89 85 38 58 86 59 
8 12 10 37 39 11 23 38 24 
8 2 0 10 12 1 4 11 5 
CELL_TYPES 100
23
23
23
23
23
23
23
23
23
23
23
23
23
23
23
23
23
23
23
23
23
23
23
23
23
23
23
23
23
23
23
23
23
23
23
23
23
23
23
23
23
23
23
23
23
23
23
23
23
23
23
23
23
23
23
23
23
23
23
23
23
23
23
23
23
23
23
23
23
23
23
23
23
23
23
23
23
23
23
23
23
23
23
23
23
23
23
23
23
23
23
23
23
23
23
23
23
23
23
23
POINT_DATA 341
SCALARS phi float 1
LOOKUP_TABLE default
-0.185677
-0.181614
-0.177999
-0.177164
-0.18529
-0.178925
-0.173718
-0.173119
-0.174896
-0.169756
-0.184976
-0.182023
-0.179691
-0.170961
-0.178045
-0.169258
-0.175701
-0.174029
-0.165854
-0.171602
-0.166893
-0.16528
-0.169817
-0.185631
-0.179998
-0.167211
-0.161647
-0.176146
-0.162382
-0.165197
-0.171888
-0.160753
-0.162279
-0.167083
-0.156609
-0.159878
-0.156986
-0.185571
-0.182967
-0.180889
-0.179342
-0.176977
-0.161551
-0.155049
-0.175147
-0.156458
-0.172443
-0.17028
-0.167186
-0.153445
-0.149959
-0.150051
-0.164641
-0.155056
-0.161098
-0.149234
-0.14722
-0.158122
-0.186148
-0.181119
-0.17732
-0.145274
-0.172642
-0.147266
-0.154065
-0.140506
-0.140582
-0.167003
-0.150611
-0.139822
-0.160345
-0.135806
-0.145958
-0.137689
-0.134387
-0.152651
-0.141977
-0.126378
-0.127004
-0.17605
-0.173097
-0.178016
-0.180415
-0.170595
-0.126946
-0.18187
-0.183762
-0.167057
-0.13661
-0.186083
-0.143981
-0.164015
-0.118433
-0.159886
-0.125543
-0.156351
-0.132012
-0.119269
-0.151677
-0.134504
-0.104436
-0.147778
-0.106785
-0.125716
-0.142687
-0.108625
-0.138689
-0.120447
-0.109512
-0.166835
-0.173134
-0.15925
-0.178131
-0.124514
-0.133441
-0.18188
-0.150534
-0.186428
-0.112867
-0.129782
-0.141092
-0.124803
-0.114344
-0.131732
-0.122194
-0.163543
-0.16692
-0.158999
-0.170752
-0.155059
-0.17346
-0.149922
-0.17656
-0.118077
-0.145675
-0.178574
-0.123824
-0.180967
-0.140235
-0.182301
-0.184033
-0.136188
-0.186104
-0.131018
-0.119332
-0.128037
-0.124104
-0.158529
-0.149216
-0.16663
-0.123514
-0.139303
-0.173265
-0.122204
-0.129999
-0.178381
-0.182014
-0.123366
-0.186167
-0.122421
-0.149167
-0.154495
-0.14477
-0.158584
-0.139175
-0.163284
-0.135068
-0.166762
-0.129914
-0.170688
-0.127126
-0.173425
-0.123608
-0.176543
-0.123703
-0.123538
-0.178503
-0.180834
-0.182019
-0.183604
-0.139027
-0.148951
-0.129736
-0.185454
-0.158274
-0.123174
-0.122409
-0.166362
-0.17295
-0.177966
-0.130431
-0.127326
-0.135612
-0.123483
-0.121689
-0.122742
-0.139745
-0.145238
-0.149526
-0.181437
-0.154713
-0.158646
-0.163208
-0.166524
-0.18535
-0.170329
-0.172913
-0.119512
-0.123403
-0.175929
-0.131039
-0.140314
-0.177749
-0.149748
-0.179993
-0.15846
-0.181048
-0.117581
-0.165993
-0.121156
-0.18255
-0.123929
-0.128685
-0.184293
-0.132477
-0.172151
-0.137699
-0.141794
-0.146938
-0.150869
-0.114948
-0.176889
-0.155601
-0.159093
-0.124146
-0.163237
-0.180236
-0.166148
-0.133618
-0.169635
-0.142844
-0.112715
-0.171911
-0.184229
-0.119596
-0.151387
-0.174732
-0.124973
-0.130929
-0.176367
-0.15898
-0.135564
-0.178548
-0.110247
-0.140821
-0.165497
-0.144815
-0.179561
-0.149448
-0.125323
-0.152848
-0.181137
-0.170913
-0.156905
-0.183001
-0.136845
-0.108609
-0.159753
-0.175264
-0.118659
-0.163273
-0.14599
-0.126451
-0.165608
-0.133546
-0.168633
-0.153447
-0.178624
-0.107009
-0.138924
-0.170503
-0.14419
-0.15965
-0.173082
-0.126771
-0.148026
-0.18314
-0.174539
-0.106824
-0.152108
-0.164895
-0.139901
-0.118969
-0.176728
-0.154924
-0.158241
-0.128177
-0.177831
-0.169403
-0.148893
-0.160389
-0.13596
-0.179684
-0.163213
-0.14169
-0.173349
-0.18194
-0.155325
-0.164933
-0.146862
-0.167451
-0.150466
-0.160219
-0.168914
-0.176891
-0.154074
-0.171259
-0.156387
-0.164263
-0.172598
-0.159104
-0.18232
-0.174871
-0.160691
-0.167927
-0.176189
-0.162963
-0.16421
-0.17847
-0.171549
-0.166339
-0.181302
-0.167519
-0.175377
-0.169711
-0.171017
-0.181846
-0.173416
-0.174989
-0.177697
-0.181094
VECTORS Displacement float
0.0332935 0 0
0.0336662 0 0
0.0340702 0 0
0.0345096 0 0
0.0331926 0.00261212 0
0.033953 0.00276385 0
0.0349858 0 0
0.0355036 0 0
0.0348585 0.00287603 0
0.0360649 0 0
0.0328844 0.00520853 0
0.033226 0.0053561 0
0.0336043 0.00548584 0
0.035934 0.00295482 0
0.0340231 0.0055994 0
0.0366754 0 0
0.0344845 0.00569765 0
0.034993 0.00578286 0
0.0373381 0 0
0.0355509 0.00585586 0
0.0372099 0.00300831 0
0.0380595 0 0
0.0361632 0.00591961 0
0.0323749 0.00777249 0
0.033038 0.00814602 0
0.036833 0.00597531 0
0.0388443 0 0
0.0338814 0.00844345 0
0.038724 0.00304791 0
0.0375658 0.00602684 0
0.0349315 0.00868179 0
0.0397 0 0
0.038366 0.00607632 0
0.0362171 0.00888119 0
0.0406335 0 0
0.0392396 0.00612896 0
0.0405242 0.00309048 0
0.0316652 0.0102887 0
0.0319415 0.0105187 0
0.0322649 0.0107277 0
0.0326383 0.0109194 0
0.0330652 0.0110954 0
0.0377705 0.00906811 0
0.0416539 0 0
0.0335488 0.0112594 0
0.0401924 0.00618866 0
0.0340927 0.0114134 0
0.0347003 0.0115615 0
0.0353754 0.011706 0
0.0412315 0.00626266 0
0.0427713 0 0
0.0426723 0.00316187 0
0.0361216 0.011852 0
0.0396274 0.00928081 0
0.0369428 0.0120032 0
0.0423647 0.00635809 0
0.0439965 0 0
0.0378423 0.0121663 0
0.0307601 0.0127413 0
0.0312983 0.0132178 0
0.0320532 0.013642 0
0.0435999 0.00648527 0
0.0330512 0.0140392 0
0.0418276 0.00957786 0
0.0388239 0.0123475 0
0.0453449 0 0
0.0452491 0.00330293 0
0.0343199 0.0144362 0
0.0398903 0.0125563 0
0.044948 0.00665704 0
0.0358868 0.014865 0
0.046829 0 0
0.0410445 0.0128033 0
0.044413 0.010052 0
0.0464167 0.00688872 0
0.0377755 0.0153688 0
0.0422876 0.0131024 0
0.0484731 0 0
0.0483628 0.00357979 0
0.0313088 0.0163084 0
0.0318231 0.0165481 0
0.0308612 0.0160735 0
0.030476 0.0158405 0
0.0324066 0.0167967 0
0.0480215 0.00720303 0
0.0301507 0.0156053 0
0.0298814 0.015365 0
0.0330639 0.0170576 0
0.0436208 0.0134718 0
0.029666 0.0151156 0
0.039999 0.0160109 0
0.033797 0.0173354 0
0.05029 0 0
0.0346101 0.0176344 0
0.0474225 0.0108511 0
0.035504 0.0179606 0
0.0450414 0.0139319 0
0.0497668 0.00762146 0
0.0364812 0.0183199 0
0.0425485 0.0168889 0
0.0523209 0 0
0.0375405 0.0187204 0
0.0521601 0.0041037 0
0.0465456 0.0145128 0
0.0386805 0.0191712 0
0.0516741 0.00818572 0
0.0398959 0.0196837 0
0.0481221 0.0152422 0
0.0508762 0.0122126 0
0.0316188 0.019561 0
0.0304219 0.0189348 0
0.0331196 0.0202959 0
0.0295024 0.0183848 0
0.0453723 0.0181523 0
0.0411783 0.0202721 0
0.0288328 0.0178815 0
0.0349421 0.0211769 0
0.028388 0.0173963 0
0.0497558 0.0161687 0
0.0425154 0.020952 0
0.0370836 0.0222512 0
0.0438861 0.0217446 0
0.0483395 0.0200212 0
0.0395016 0.02358 0
0.0452658 0.0226684 0
0.0306724 0.0223627 0
0.0299964 0.0219362 0
0.0314251 0.0228315 0
0.029393 0.0215477 0
0.032255 0.0233465 0
0.0288602 0.0211934 0
0.0331641 0.0239124 0
0.0283931 0.020869 0
0.0466133 0.0237526 0
0.03415 0.0245333 0
0.0279895 0.0205712 0
0.042084 0.0252436 0
0.0276446 0.0202959 0
0.0352095 0.0252137 0
0.0273564 0.0200398 0
0.0271208 0.019799 0
0.0363353 0.025958 0
0.0269363 0.0195703 0
0.0375149 0.0267702 0
0.0446122 0.0273371 0
0.0387331 0.0276543 0
0.0399622 0.0286124 0
0.0295369 0.0252269 0
0.0311578 0.0265017 0
0.0282065 0.0241763 0
0.0411747 0.0296454 0
0.0330689 0.0280225 0
0.027147 0.0233208 0
0.0423237 0.0307513 0
0.0352304 0.0297969 0
0.0263306 0.0226297 0
0.0257289 0.022073 0
0.0375364 0.0318046 0
0.0253171 0.0216229 0
0.0397861 0.03398 0
0.0289372 0.0289188 0
0.0281677 0.0281588 0
0.0297743 0.0297462 0
0.0274664 0.0274664 0
0.030678 0.0306409 0
0.0268305 0.0268383 0
0.0316443 0.0315997 0
0.0262584 0.0262728 0
0.0326652 0.032616 0
0.025746 0.0257653 0
0.0337309 0.0336816 0
0.0252905 0.0253132 0
0.0348222 0.0347795 0
0.0248875 0.0249116 0
0.0359204 0.0358932 0
0.0369927 0.0369928 0
0.024534 0.0245577 0
0.0242257 0.024247 0
0.0239601 0.0239766 0
0.0237332 0.0237427 0
0.0280635 0.0330381 0
0.0265219 0.0311424 0
0.0298514 0.0351898 0
0.0235432 0.0235432 0
0.0252269 0.0295369 0
0.031852 0.0375012 0
0.0339801 0.0397861 0
0.0241606 0.0282187 0
0.0232962 0.0271664 0
0.0226041 0.0263509 0
0.0268256 0.037485 0
0.0277098 0.0387033 0
0.0260081 0.036308 0
0.0286606 0.0399363 0
0.0307512 0.0423237 0
0.0296761 0.0411582 0
0.0252553 0.0351866 0
0.0245646 0.0341324 0
0.0239329 0.0331525 0
0.0220551 0.0257431 0
0.0233564 0.0322493 0
0.0228315 0.0314251 0
0.022354 0.0306775 0
0.0219204 0.0300059 0
0.0216229 0.0253171 0
0.0215264 0.0294059 0
0.0211686 0.0288754 0
0.0273372 0.0446122 0
0.0252889 0.0420677 0
0.0208427 0.0284094 0
0.0236319 0.0394826 0
0.0222902 0.0370688 0
0.0205454 0.0280056 0
0.0211962 0.0349343 0
0.0202728 0.0276591 0
0.0202959 0.0331196 0
0.0200218 0.0273677 0
0.0237525 0.0466132 0
0.0195462 0.0316253 0
0.0226935 0.0452607 0
0.0197887 0.0271272 0
0.0217836 0.0438782 0
0.0209968 0.0425063 0
0.0195703 0.0269363 0
0.0203168 0.0411689 0
0.0189115 0.0304326 0
0.0197241 0.0398871 0
0.0192048 0.0386728 0
0.0187458 0.0375344 0
0.0183365 0.036477 0
0.0200212 0.0483395 0
0.0183605 0.0295139 0
0.0179686 0.0355019 0
0.0176344 0.03461 0
0.0181829 0.0453706 0
0.0173283 0.033799 0
0.0178647 0.0288408 0
0.0170447 0.0330677 0
0.0169238 0.0425463 0
0.0167794 0.0324119 0
0.0160372 0.0399968 0
0.0161687 0.0497557 0
0.0165279 0.0318295 0
0.0173963 0.028388 0
0.0152559 0.0481234 0
0.0153818 0.0377741 0
0.0162869 0.0313158 0
0.014534 0.0465474 0
0.0139563 0.0450435 0
0.0160525 0.0308682 0
0.014865 0.0358868 0
0.013496 0.0436226 0
0.0158217 0.0304823 0
0.0122126 0.0508762 0
0.0131244 0.0422891 0
0.014426 0.0343215 0
0.0128216 0.0410455 0
0.0155908 0.0301557 0
0.0125702 0.0398909 0
0.0108636 0.0474255 0
0.0123566 0.0388242 0
0.0153567 0.0298843 0
0.0140232 0.0330541 0
0.0121707 0.0378424 0
0.0151156 0.029666 0
0.0100662 0.0444162 0
0.00818574 0.051674 0
0.0120032 0.0369428 0
0.0136253 0.0320566 0
0.00762509 0.0497682 0
0.0118481 0.0361217 0
0.00958867 0.0418297 0
0.0072087 0.0480237 0
0.0116988 0.0353757 0
0.00689516 0.0464192 0
0.0115518 0.0347007 0
0.00928623 0.0396283 0
0.0132063 0.0313007 0
0.00410364 0.0521601 0
0.00666346 0.0449504 0
0.0114021 0.0340933 0
0.00649111 0.043602 0
0.00906812 0.0377704 0
0.0112474 0.0335496 0
0.00358115 0.0483636 0
0.00636296 0.0423664 0
0.0127413 0.0307601 0
0.0110836 0.0330661 0
0 0.0523209 0
0.00626638 0.0412327 0
0.0088769 0.0362166 0
0.00330451 0.0452499 0
0 0.05029 0
0.0109089 0.0326392 0
0.0061911 0.0401932 0
0.00613015 0.0392399 0
0 0.0484731 0
0.0107196 0.0322656 0
0.008675 0.0349309 0
0.00316308 0.0426729 0
0.00607631 0.038366 0
0 0.046829 0
0.010514 0.031942 0
0.00602578 0.0375655 0
0 0.0453449 0
0.00843638 0.0338811 0
0.0102887 0.0316652 0
0.0030911 0.0405245 0
0.00597334 0.0368325 0
0 0.0439965 0
0.00591696 0.0361625 0
0 0.0427713 0
0.00304793 0.038724 0
0.00585274 0.0355502 0
0.00814115 0.0330378 0
0 0.0416539 0
0.00577955 0.0349923 0
0 0.0406335 0
0.00300784 0.0372096 0
0.00569441 0.0344839 0
0 0.0397 0
0.00777249 0.0323749 0
0.00559652 0.0340225 0
0 0.0388443 0
0.00295406 0.0359337 0
0.00548361 0.0336039 0
0 0.0380595 0
0 0.0373381 0
0.00535483 0.0332258 0
0.00287523 0.0348582 0
0 0.0366754 0
0.00520853 0.0328844 0
0 0.0360649 0
0.0027633 0.0339528 0
0 0.0355036 0
0 0.0349858 0
0.00261211 0.0331926 0
0 0.0345096 0
0 0.0340702 0
0 0.0336661 0
0 0.0332935 0
VECTORS Strain float
-1.31434e-05 3.17058e-05  -0.000385558
-1.33484e-05 2.22742e-05  -0.000415796
-1.34323e-05 1.10106e-05  -0.000442513
-1.53094e-05 2.34345e-05  -0.000447459
1.87573e-05 -2.70436e-06  -0.000390373
2.31919e-05 -9.92915e-06  -0.000435248
-1.5528e-05 1.1479e-05  -0.000473015
-1.79188e-05 2.42384e-05  -0.000476201
2.42073e-05 -6.05928e-06  -0.000464272
-1.82899e-05 1.17892e-05  -0.000501197
5.08481e-05 -3.12963e-05  -0.000384484
5.52863e-05 -2.77308e-05  -0.000405716
5.90193e-05 -2.41653e-05  -0.000422519
2.35617e-05 -2.90343e-06  -0.000492649
6.067e-05 -2.11814e-05  -0.000434635
-2.12983e-05 2.47471e-05  -0.00050357
6.31779e-05 -1.81191e-05  -0.000451625
6.34619e-05 -1.58206e-05  -0.000464041
-2.18381e-05 1.19761e-05  -0.000528896
6.46812e-05 -1.33781e-05  -0.00048174
2.12712e-05 -6.95508e-07  -0.000521984
-2.55816e-05 2.50473e-05  -0.000531707
6.36669e-05 -1.19451e-05  -0.000495047
6.93119e-05 -2.73255e-05  -0.000375653
7.96296e-05 -3.03312e-05  -0.000413589
6.36679e-05 -1.03334e-05  -0.000514097
-2.62911e-05 1.20896e-05  -0.000558702
8.32063e-05 -2.33501e-05  -0.000442481
1.75074e-05 1.65689e-07  -0.000554459
6.15657e-05 -1.0101e-05  -0.000529045
8.39427e-05 -1.81618e-05  -0.000474527
-3.09145e-05 2.52658e-05  -0.000563668
6.05772e-05 -9.68838e-06  -0.000550315
8.19097e-05 -1.51985e-05  -0.000510642
-3.17775e-05 1.22041e-05  -0.000594362
5.77938e-05 -1.12338e-05  -0.000567911
1.2654e-05 -9.79546e-07  -0.000593201
0.000100023 -4.80896e-05  -0.000358521
0.000106476 -4.39081e-05  -0.000377203
0.00011138 -3.97265e-05  -0.000392419
0.000113584 -3.67626e-05  -0.000404269
0.000117243 -3.36445e-05  -0.000421727
7.74519e-05 -1.52971e-05  -0.000551873
-3.74822e-05 2.55944e-05  -0.000603919
0.000118084 -3.18068e-05  -0.000435843
5.6274e-05 -1.26452e-05  -0.000592647
0.0001205 -2.97939e-05  -0.000455925
0.000120029 -2.92532e-05  -0.000472585
0.000121266 -2.85413e-05  -0.000495578
5.35174e-05 -1.69431e-05  -0.00061432
-3.84668e-05 1.24337e-05  -0.000641432
7.41613e-06 -5.22095e-06  -0.000642842
0.000119625 -2.97187e-05  -0.000514954
7.14026e-05 -1.99612e-05  -0.000599544
0.000119887 -3.07499e-05  -0.000541076
5.22885e-05 -2.12271e-05  -0.000644382
-4.55462e-05 2.63314e-05  -0.000659203
0.00011744 -3.44306e-05  -0.000563195
0.000118287 -3.74422e-05  -0.000348931
0.000129973 -4.1817e-05  -0.000380849
0.000133892 -3.77344e-05  -0.000410129
5.07563e-05 -2.98953e-05  -0.000672185
0.000136046 -3.61635e-05  -0.000445922
6.5436e-05 -3.1755e-05  -0.000655421
0.000117226 -3.8041e-05  -0.000592569
-4.65824e-05 1.29581e-05  -0.000708433
3.04263e-06 -1.43808e-05  -0.000710414
0.000136465 -3.74047e-05  -0.000488636
0.000114747 -4.55856e-05  -0.000617229
5.1255e-05 -3.88105e-05  -0.000710366
0.000135347 -4.22015e-05  -0.000538319
-5.55599e-05 2.79539e-05  -0.000739922
0.000115104 -5.32283e-05  -0.000649825
6.26634e-05 -5.49216e-05  -0.000721804
5.31083e-05 -5.45987e-05  -0.000747213
0.000133346 -5.20282e-05  -0.00059438
0.000114067 -6.68512e-05  -0.000676372
-5.65678e-05 1.40681e-05  -0.000808734
1.80394e-06 -3.15455e-05  -0.000806843
0.000164061 -4.74575e-05  -0.00039961
0.000167885 -4.8424e-05  -0.0004209
0.000162891 -4.64086e-05  -0.000384685
0.000158845 -4.68236e-05  -0.000367325
0.000168694 -5.09441e-05  -0.000439627
5.8002e-05 -7.1125e-05  -0.000797707
0.000157308 -4.71479e-05  -0.000356101
0.000153 -4.89745e-05  -0.000342346
0.000172306 -5.33931e-05  -0.000464987
0.000116978 -8.09054e-05  -0.000711754
0.000146825 -5.08011e-05  -0.000326204
0.000132027 -6.94859e-05  -0.000655112
0.000172763 -5.7683e-05  -0.000487335
-6.85567e-05 3.12684e-05  -0.000862959
0.000176233 -6.19105e-05  -0.000516599
6.86615e-05 -9.62673e-05  -0.000801204
0.000176456 -6.85459e-05  -0.000541864
0.00012001 -0.000104095  -0.000738606
6.75918e-05 -9.82697e-05  -0.000846732
0.000180054 -7.51544e-05  -0.000574282
0.000134546 -9.87973e-05  -0.000716793
-6.95443e-05 1.62683e-05  -0.000964732
0.000180442 -8.51375e-05  -0.000600835
8.21398e-06 -6.21707e-05  -0.000949124
0.000129033 -0.000128239  -0.000775351
0.000184864 -9.51939e-05  -0.000634632
8.2357e-05 -0.000127436  -0.000914981
0.000186338 -0.00011009  -0.000659271
0.000141047 -0.000165589  -0.000797549
9.33967e-05 -0.000166573  -0.000894786
0.000185291 -6.46204e-05  -0.000454103
0.000180927 -5.55605e-05  -0.000409005
0.000190289 -7.70669e-05  -0.000507367
0.000177191 -4.95144e-05  -0.000372494
0.000146545 -0.000146149  -0.000771877
0.000193015 -0.000125276  -0.0006909
0.00017412 -4.63088e-05  -0.000344332
0.000196132 -9.3598e-05  -0.000567039
0.000163843 -3.6034e-05  -0.000318196
0.000162802 -0.000205006  -0.000830652
0.000197272 -0.00014725  -0.000707946
0.000203492 -0.000115388  -0.000628956
0.000208675 -0.000169816  -0.000730963
0.000176997 -0.00021941  -0.000805626
0.000213855 -0.000144184  -0.000684937
0.000218815 -0.000200798  -0.000730027
0.000220646 -8.95229e-05  -0.000443573
0.000217388 -8.11285e-05  -0.000421411
0.000228239 -9.79839e-05  -0.000472408
0.000210951 -7.4288e-05  -0.000396779
0.000232318 -0.00010809  -0.000497629
0.000208624 -6.75154e-05  -0.000378605
0.000241055 -0.000118248  -0.000529596
0.000203357 -6.22161e-05  -0.000358436
0.000238988 -0.000232865  -0.000732731
0.000245816 -0.000130131  -0.000555714
0.00020203 -5.69739e-05  -0.00034452
0.000229805 -0.000182015  -0.000720613
0.000197945 -5.31433e-05  -0.000328681
0.000255714 -0.000142034  -0.000588264
0.000197659 -4.93626e-05  -0.000318992
0.000194745 -4.69458e-05  -0.000307167
0.000260978 -0.000155655  -0.000611049
0.00019007 -4.4529e-05  -0.000293808
0.000272085 -0.000169238  -0.0006392
0.000254697 -0.000229933  -0.000713387
0.000277604 -0.00018422  -0.000651413
0.00028989 -0.000199043  -0.000666713
0.000241189 -0.000113431  -0.000456017
0.000255964 -0.000137118  -0.000511759
0.000229342 -9.24143e-05  -0.00040655
0.000295644 -0.00021389  -0.00065686
0.000273173 -0.000162506  -0.00056939
0.000220634 -7.44369e-05  -0.000365193
0.000309016 -0.000228496  -0.000646471
0.000291769 -0.000187638  -0.000620342
0.000215154 -5.95176e-05  -0.0003324
0.000212969 -4.74749e-05  -0.000307969
0.00030973 -0.000209029  -0.000650076
0.000204549 -2.94974e-05  -0.000288244
0.000323376 -0.0002211  -0.000637537
0.000295744 -0.000158729  -0.00045691
0.000282226 -0.000145236  -0.00042964
0.000304645 -0.000172211  -0.000479727
0.000274634 -0.000131868  -0.000408233
0.000319663 -0.000185659  -0.000508022
0.000263267 -0.00011936  -0.000383937
0.000328661 -0.000197511  -0.00052916
0.000257559 -0.000107034  -0.000365497
0.000343748 -0.000209001  -0.000554662
0.000248569 -9.59621e-05  -0.00034498
0.000350651 -0.000216348  -0.000568763
0.00024498 -8.50788e-05  -0.000330167
0.000363174 -0.0002228  -0.000585036
0.000238398 -7.55465e-05  -0.000313613
0.00036496 -0.000221333  -0.000583487
0.000371164 -0.000218513  -0.000580987
0.000237014 -6.61982e-05  -0.000302618
0.000232824 -5.81075e-05  -0.000289913
0.000233711 -5.02133e-05  -0.000282727
0.000231941 -4.33483e-05  -0.00027363
0.000333147 -0.000202328  -0.000478031
0.000308423 -0.000173787  -0.000430131
0.00035787 -0.000225055  -0.000524935
0.000228692 -3.64833e-05  -0.000263422
0.000286739 -0.000144215  -0.000385729
0.000376961 -0.000234301  -0.000562983
0.000381521 -0.000219689  -0.000579962
0.00026949 -0.000116204  -0.000347096
0.000257174 -9.09152e-05  -0.000315174
0.000249905 -6.86401e-05  -0.000290176
0.000397911 -0.000240956  -0.000443924
0.00040629 -0.000245125  -0.000464425
0.00038035 -0.000229847  -0.000420586
0.000419537 -0.000248072  -0.000488043
0.000423979 -0.000227482  -0.000527206
0.000420592 -0.000238744  -0.000506748
0.000369111 -0.000218246  -0.000401237
0.000351102 -0.000203409  -0.000379584
0.000339989 -0.000188517  -0.00036233
0.000247714 -4.91693e-05  -0.00027196
0.000323665 -0.000172738  -0.000343017
0.000314273 -0.000157113  -0.00032824
0.000300619 -0.00014192  -0.00031157
0.000293679 -0.000126959  -0.000299423
0.000239485 -2.49409e-05  -0.000259505
0.000283025 -0.000113054  -0.000285509
0.000278806 -9.93946e-05  -0.000276043
0.00042913 -0.000244923  -0.000525472
0.00042474 -0.000262898  -0.000461587
0.000271177 -8.69792e-05  -0.00026489
0.000404004 -0.000253239  -0.000408764
0.000376926 -0.000228454  -0.00036596
0.000269753 -7.48079e-05  -0.000258105
0.000349646 -0.00019706  -0.000330987
0.000265085 -6.37897e-05  -0.000249652
0.000325484 -0.000164187  -0.000302115
0.000266503 -5.30281e-05  -0.000245526
0.000466287 -0.000267491  -0.00046276
0.000306001 -0.000132604  -0.000278319
0.000458715 -0.000273503  -0.000417244
0.000264789 -4.31389e-05  -0.000239675
0.00045386 -0.000277826  -0.000377746
0.000438697 -0.00027093  -0.000346674
0.000261727 -3.32498e-05  -0.000232703
0.000428942 -0.000263094  -0.000320386
0.000291766 -0.00010358  -0.000259073
0.000410871 -0.000249605  -0.000299747
0.000399662 -0.000235767  -0.000282955
0.000381698 -0.000219578  -0.000268741
0.000371171 -0.000203355  -0.000257789
0.000467132 -0.000299789  -0.000448928
0.000282871 -7.74824e-05  -0.000244132
0.000354922 -0.0001867  -0.00024734
0.000346167 -0.000170168  -0.000239892
0.000451293 -0.000294716  -0.000348023
0.000332395 -0.000154233  -0.000231728
0.00027925 -5.41572e-05  -0.000233352
0.000325925 -0.000138488  -0.000226476
0.000427504 -0.000271168  -0.000286307
0.000314891 -0.00012382  -0.000219885
0.000401825 -0.000239462  -0.000249538
0.000497188 -0.000332112  -0.000361943
0.00031089 -0.00010936  -0.000216186
0.000268228 -2.75526e-05  -0.00022833
0.000478908 -0.00032083  -0.000304688
0.000377445 -0.000205334  -0.000227403
0.00030259 -9.61285e-05  -0.000210893
0.000466682 -0.000309095  -0.000256826
0.000448528 -0.000292482  -0.000225058
0.000301084 -8.30987e-05  -0.000208465