# vtk DataFile Version 3.0
File generated from DClib
ASCII

DATASET UNSTRUCTURED_GRID
POINTS 1909 float
50 0 0 
48.75 0 0 
50 1.66667 0 
47.5 0 0 
50 3.33333 0 
46.25 0 0 
50 5 0 
45 0 0 
43.75 0 0 
50 6.66667 0 
43 2 0 
42.5 0 0 
50 8.33333 0 
43 4.66667 0 
41.25 0 0 
41.075 2 0 
50 10 0 
40 0 0 
43 7.33333 0 
39.15 2 0 
38.75 0 0 
43 10 0 
37.5 0 0 
37.225 2 0 
36.25 0 0 
36 4 0 
35.3 2 0 
36 5 0 
35 0 0 
35.325 4 0 
36 6 0 
36 7 0 
34.65 4 0 
36 8 0 
33.75 0 0 
33.975 4 0 
36 9 0 
33.375 2 0 
33.3 4 0 
36 10 0 
32.5 0 0 
32.625 4 0 
33 6 0 
31.95 4 0 
33 7.45455 0 
31.45 2 0 
31.25 0 0 
31.95 6 0 
33 8.79545 0 
31.275 4 0 
33 10 0 
30.6 4 0 
30 0 0 
30.9 6 0 
29.925 4 0 
29.525 2 0 
29.85 6 0 
29.25 4 0 
28.75 0 0 
30 8 0 
30 8.45455 0 
28.575 4 0 
29.625 8 0 
30 8.90909 0 
28.8 6 0 
30 9.25 0 
29.782 8.90909 0 
30 9.59091 0 
29.9487 9.59091 0 
29.25 8 0 
29.7462 9.25 0 
30 9.79545 0 
29.897 9.59091 0 
29.564 8.90909 0 
29.9547 9.79545 0 
29.3462 8.45455 0 
29.84 9.59091 0 
30 10 0 
29.8975 9.79545 0 
29.9882 10 0 
29.9902 10.0098 0 
29.7827 9.59091 0 
29.9765 10 0 
29.9804 10.0196 0 
29.9667 10.0098 0 
29.9591 10 0 
29.9686 10.0196 0 
29.9659 10.0341 0 
29.9569 10.0196 0 
29.9418 10 0 
29.9395 10.0196 0 
29.9515 10.0485 0 
29.932 10.0098 0 
29.9424 10.0341 0 
29.8241 9.79545 0 
29.7181 9.59091 0 
29.9166 10 0 
29.9397 10.0485 0 
29.9222 10.0196 0 
29.9279 10.0485 0 
29.9305 10.0695 0 
29.8914 10 0 
29.9077 10.0341 0 
27.9 4 0 
29.897 10.0196 0 
29.9106 10.0485 0 
29.8817 10.0098 0 
29.907 10.0695 0 
29.8933 10.0485 0 
29.9095 10.0905 0 
29.8719 10.0196 0 
27.6 2 0 
29.8556 10 0 
29.8978 10.0905 0 
29.6531 9.59091 0 
29.3437 8.90909 0 
27.5 0 0 
29.8681 10.0485 0 
29.886 10.0905 0 
29.8574 10.0341 0 
29.4839 9.25 0 
29.8723 10.0695 0 
29.7289 9.79545 0 
29.836 10.0196 0 
29.8687 10.0905 0 
29.8197 10 0 
29.8797 10.1203 0 
29.843 10.0485 0 
29.8513 10.0905 0 
29.81 10.0098 0 
29.8561 10.1203 0 
29.8002 10.0196 0 
29.8221 10.0695 0 
29.8072 10.0485 0 
29.8262 10.0905 0 
29.5782 9.59091 0 
29.8498 10.1502 0 
29.7695 10 0 
29.7858 10.0341 0 
29.838 10.1502 0 
29.8215 10.1203 0 
29.8011 10.0905 0 
29.8262 10.1502 0 
29.7714 10.0485 0 
28.875 8 0 
29.75 10.0196 0 
29.8089 10.1502 0 
29.7654 10.0905 0 
29.7193 10 0 
29.7916 10.1502 0 
29.7505 10.0695 0 
29.8079 10.1921 0 
29.7713 10.1203 0 
29.7096 10.0098 0 
29.6047 9.79545 0 
29.503 9.59091 0 
29.7213 10.0485 0 
29.7665 10.1502 0 
29.6999 10.0196 0 
29.7844 10.1921 0 
29.7296 10.0905 0 
29.6856 10.0341 0 
29.7414 10.1502 0 
29.7497 10.1921 0 
29.6503 10 0 
29.7661 10.2339 0 
29.6712 10.0485 0 
29.6999 10.1203 0 
29.7543 10.2339 0 
29.6796 10.0905 0 
29.7057 10.1502 0 
29.7425 10.2339 0 
29.1235 8.90909 0 
29.6309 10.0196 0 
29.6504 10.0695 0 
29.4146 9.59091 0 
29.7252 10.2339 0 
29.6996 10.1921 0 
29.6701 10.1502 0 
29.7079 10.2339 0 
29.6296 10.0905 0 
29.5813 10 0 
29.6023 10.0485 0 
29.5716 10.0098 0 
29.6828 10.2339 0 
29.7086 10.2914 0 
29.2101 9.25 0 
29.562 10.0196 0 
29.6201 10.1502 0 
29.6578 10.2339 0 
29.4428 9.79545 0 
29.5999 10.1203 0 
29.6849 10.2914 0 
29.6283 10.1921 0 
29.5477 10.0341 0 
29.3259 9.59091 0 
29.5608 10.0905 0 
29.5335 10.0485 0 
29.6221 10.2339 0 
29.6503 10.2914 0 
29.5702 10.1502 0 
29.4881 10 0 
29.5128 10.0695 0 
29.6511 10.3489 0 
29.5866 10.2339 0 
29.6392 10.3489 0 
29.4689 10.0196 0 
29.6002 10.2914 0 
29.6273 10.3489 0 
29.4921 10.0905 0 
29.61 10.3489 0 
29.5286 10.1921 0 
29.5016 10.1502 0 
29.5368 10.2339 0 
29.5926 10.3489 0 
29.4405 10.0485 0 
29.2199 9.59091 0 
29.4626 10.1203 0 
29.3949 10 0 
28.9 8.90909 0 
29.5676 10.3489 0 
29.5291 10.2914 0 
29.3853 10.0098 0 
28.6923 8.45455 0 
29.487 10.2339 0 
29.5426 10.3489 0 
29.3758 10.0196 0 
29.5734 10.4266 0 
29.4331 10.1502 0 
29.3993 10.0905 0 
28.5 8 0 
29.3617 10.0341 0 
29.5496 10.4266 0 
29.5071 10.3489 0 
29.2327 9.79545 0 
29.3475 10.0485 0 
29.1136 9.59091 0 
29.4187 10.2339 0 
29.5148 10.4266 0 
29.4716 10.3489 0 
29.3918 10.1921 0 
29.3271 10.0695 0 
29.4298 10.2914 0 
29.2714 10 0 
29.3406 10.1502 0 
28.9208 9.25 0 
29.3066 10.0905 0 
29.4648 10.4266 0 
29.422 10.3489 0 
29.4958 10.5042 0 
29.2524 10.0196 0 
27.75 6 0 
29.3504 10.2339 0 
29.4837 10.5042 0 
29.4718 10.5042 0 
29.2774 10.1203 0 
29.4543 10.5042 0 
29.3724 10.3489 0 
29.2244 10.0485 0 
29.4369 10.5042 0 
29.3938 10.4266 0 
28.9853 9.59091 0 
29.2481 10.1502 0 
28.6766 8.90909 0 
29.4119 10.5042 0 
29.2934 10.2914 0 
27.225 4 0 
29.148 10 0 
29.2582 10.2339 0 
29.1837 10.0905 0 
29.3869 10.5042 0 
29.1385 10.0098 0 
29.3044 10.3489 0 
29.1291 10.0196 0 
29.2072 10.1921 0 
29.3514 10.5042 0 
29.1152 10.0341 0 
29.3929 10.6071 0 
29.2949 10.4266 0 
29.1013 10.0485 0 
29.3686 10.6071 0 
29.316 10.5042 0 
29.2364 10.3489 0 
28.9623 9.79545 0 
29.1257 10.1502 0 
29.1662 10.2339 0 
29.0811 10.0695 0 
28.8566 9.59091 0 
29.3336 10.6071 0 
29.2666 10.5042 0 
29.0609 10.0905 0 
28.9875 10 0 
29.2835 10.6071 0 
29.1448 10.3489 0 
29.0321 10.1203 0 
29.2173 10.5042 0 
29.1098 10.2914 0 
28.125 8 0 
28.9688 10.0196 0 
29.1594 10.4266 0 
28.611 9.25 0 
29.29 10.71 0 
28.4486 8.90909 0 
29.0443 10.2339 0 
29.0033 10.1502 0 
29.2777 10.71 0 
28.9413 10.0485 0 
29.2128 10.6071 0 
29.2655 10.71 0 
29.1497 10.5042 0 
29.2478 10.71 0 
28.7003 9.59091 0 
29.0533 10.3489 0 
29.2303 10.71 0 
28.9629 10.1921 0 
28.9013 10.0905 0 
29.2051 10.71 0 
29.0822 10.5042 0 
29.1801 10.71 0 
28.827 10 0 
29.1144 10.6071 0 
28.8177 10.0098 0 
28.9225 10.2339 0 
28.8085 10.0196 0 
29.1447 10.71 0 
28.7949 10.0341 0 
28.8443 10.1502 0 
28.977 10.4266 0 
28.9322 10.3489 0 
29.1094 10.71 0 
28.7813 10.0485 0 
28.9912 10.5042 0 
29.1562 10.8438 0 
28.5436 9.59091 0 
28.7615 10.0695 0 
28.8669 10.2914 0 
29.1313 10.8438 0 
28.6184 9.79545 0 
29.0602 10.71 0 
28.2207 8.90909 0 
28.7418 10.0905 0 
28.0378 8.45455 0 
28.9798 10.6071 0 
29.0958 10.8438 0 
29.0112 10.71 0 
28.9005 10.5042 0 
28.7136 10.1203 0 
28.7644 10.2339 0 
28.8113 10.3489 0 
29.0454 10.8438 0 
28.6223 10 0 
28.6854 10.1502 0 
28.2746 9.25 0 
28.9441 10.71 0 
28.6042 10.0196 0 
27.75 8 0 
28.9747 10.8438 0 
28.6459 10.1921 0 
28.5773 10.0485 0 
29.0225 10.9775 0 
28.3532 9.59091 0 
28.7804 10.5042 0 
28.736 10.4266 0 
28.8772 10.71 0 
29.0097 10.9775 0 
28.9971 10.9775 0 
28.799 10.6071 0 
28.9791 10.9775 0 
28.5384 10.0905 0 
28.6064 10.2339 0 
28.6543 10.3489 0 
28.9611 10.9775 0 
28.8769 10.8438 0 
27.9867 8.90909 0 
26.25 0 0 
28.9358 10.9775 0 
28.7871 10.71 0 
28.9106 10.9775 0 
28.6607 10.5042 0 
28.4177 10 0 
26.55 4 0 
28.552 10.2914 0 
28.483 10.1502 0 
28.4087 10.0098 0 
28.8751 10.9775 0 
28.3998 10.0196 0 
28.3866 10.0341 0 
28.8399 10.9775 0 
28.6974 10.71 0 
28.3735 10.0485 0 
28.1625 9.59091 0 
28.7436 10.8438 0 
28.4976 10.3489 0 
28.3543 10.0695 0 
28.791 10.9775 0 
28.4052 10.2339 0 
28.3352 10.0905 0 
28.8519 11.1481 0 
28.1869 9.79545 0 
28.5607 10.6071 0 
28.5053 10.5042 0 
28.7423 10.9775 0 
28.8258 11.1481 0 
28.308 10.1203 0 
28.5787 10.71 0 
27.904 9.25 0 
28.7893 11.1481 0 
28.424 10.4266 0 
27.7528 8.90909 0 
28.2807 10.1502 0 
28.6758 10.9775 0 
27.375 8 0 
28.7383 11.1481 0 
28.1619 10 0 
28.5649 10.8438 0 
28.2425 10.1921 0 
28.6096 10.9775 0 
28.1444 10.0196 0 
28.298 10.3489 0 
28.4605 10.71 0 
26.7 6 0 
27.9315 9.59091 0 
28.3503 10.5042 0 
28.6676 11.1481 0 
28.1187 10.0485 0 
28.2042 10.2339 0 
28.5207 10.9775 0 
28.0813 10.0905 0 
28.6814 11.3186 0 
27.3818 8.45455 0 
28.6679 11.3186 0 
28.1516 10.2914 0 
28.5703 11.1481 0 
28.6544 11.3186 0 
28.6358 11.3186 0 
27.5109 8.90909 0 
28.3072 10.71 0 
28.6173 11.3186 0 
28.2524 10.6071 0 
28.4322 10.9775 0 
28.028 10.1502 0 
28.5915 11.3186 0 
28.0989 10.3489 0 
28.33 10.8438 0 
28.5658 11.3186 0 
28.153 10.5042 0 
27.9061 10 0 
27.8975 10.0098 0 
28.5303 11.3186 0 
28.4384 11.1481 0 
27.7002 9.59091 0 
27.889 10.0196 0 
27.8765 10.0341 0 
28.4949 11.3186 0 
28.3154 10.9775 0 
27.9532 10.2339 0 
27.8639 10.0485 0 
28.0276 10.4266 0 
28.1544 10.71 0 
27.8457 10.0695 0 
27.4909 9.25 0 
28.4463 11.3186 0 
27 8 0 
27.8275 10.0905 0 
28.3979 11.3186 0 
27.8015 10.1203 0 
27.6542 9.79545 0 
25.675 2 0 
28.1991 10.9775 0 
27.2691 8.90909 0 
27.9563 10.5042 0 
28.4682 11.5318 0 
28.2625 11.1481 0 
27.7755 10.1502 0 
28.3322 11.3186 0 
27.8502 10.3489 0 
28.4401 11.5318 0 
25.875 4 0 
27.7391 10.1921 0 
28.4019 11.5318 0 
28.0268 10.8438 0 
28.2668 11.3186 0 
27.9602 10.71 0 
28.3498 11.5318 0 
27.4223 9.59091 0 
27.7026 10.2339 0 
27.5927 10 0 
28.0486 10.9775 0 
27.8616 10.6071 0 
27.5762 10.0196 0 
28.1794 11.3186 0 
28.2786 11.5318 0 
27.5519 10.0485 0 
27.6524 10.2914 0 
28.0319 11.1481 0 
27.7108 10.5042 0 
27.5167 10.0905 0 
27.0169 8.90909 0 
28.0924 11.3186 0 
27.6021 10.3489 0 
27.8988 10.9775 0 
28.1818 11.5318 0 
27.7667 10.71 0 
26.625 8 0 
28.255 11.745 0 
27.4664 10.1502 0 
28.2402 11.745 0 
28.2256 11.745 0 
28.2059 11.745 0 
27.978 11.3186 0 
26.7234 8.45455 0 
27.0259 9.25 0 
27.5342 10.4266 0 
28.1863 11.745 0 
27.1442 9.59091 0 
28.0516 11.5318 0 
28.1598 11.745 0 
27.3959 10.2339 0 
28.1334 11.745 0 
27.2793 10 0 
27.2714 10.0098 0 
27.2635 10.0196 0 
27.7086 10.9775 0 
27.6431 10.8438 0 
28.0975 11.745 0 
27.8643 11.3186 0 
27.4661 10.5042 0 
27.2518 10.0341 0 
27.2401 10.0485 0 
28.0617 11.745 0 
26.7648 8.90909 0 
27.5255 10.71 0 
27.7353 11.1481 0 
27.2231 10.0695 0 
28.0133 11.745 0 
27.2061 10.0905 0 
27.8791 11.5318 0 
27.2986 10.3489 0 
27.1818 10.1203 0 
27.9651 11.745 0 
27.3758 10.6071 0 
27.0077 9.79545 0 
27.7174 11.3186 0 
27.1576 10.1502 0 
25 0 0 
27.5193 10.9775 0 
27.9003 11.745 0 
27.1236 10.1921 0 
26.25 8 0 
27.9939 12.0061 0 
25.65 6 0 
27.8359 11.745 0 
26.8136 9.59091 0 
27.0896 10.2339 0 
27.9626 12.0061 0 
27.2853 10.71 0 
25.2 4 0 
27.5713 11.3186 0 
27.9218 12.0061 0 
26.4998 8.90909 0 
27.167 10.5042 0 
27.6541 11.5318 0 
27.0427 10.2914 0 
27.7503 11.745 0 
26.9033 10 0 
27.8677 12.0061 0 
26.8882 10.0196 0 
26.8659 10.0485 0 
26.9958 10.3489 0 
27.2836 10.9775 0 
27.6652 11.745 0 
27.3609 11.1481 0 
27.7955 12.0061 0 
26.499 9.25 0 
[...]
POINT_DATA 1909
SCALARS phi float 1
LOOKUP_TABLE default
VECTORS Displacement float
0 0 0
0 0 0
0 -0.00148991 0
0 0 0
0 -0.000736637 0
0 0 0
0 0.00206705 0
0 0 0
0 0 0
0 0.00673394 0
0.0131338 -0.000562389 0
0 0 0
0 0.0129999 0
0.024872 0.00463779 0
0 0 0
0.0177212 -0.000561464 0
0 0.0204547 0
0 0 0
0.0331534 0.0148565 0
0.022578 -0.000663337 0
0 0 0
0.03766 0.0282725 0
0 0 0
0.0275703 -0.000920238 0
0 0 0
0.0516473 0.00329879 0
0.0324237 -0.00130408 0
0.061367 0.0072891 0
0 0 0
0.0553602 0.00301193 0
0.068264 0.0124014 0
0.072817 0.0182705 0
0.058875 0.00270818 0
0.0757356 0.024273 0
0 0 0
0.0623434 0.00225147 0
0.0777952 0.0302658 0
0.0368958 -0.00178666 0
0.0656299 0.00176441 0
0.0796638 0.0363491 0
0 0 0
0.0687381 0.00119963 0
0.0890244 0.0103044 0
0.0716428 0.000605459 0
0.0981544 0.0201683 0
0.0407914 -0.00235158 0
0 0 0
0.0961157 0.00755004 0
0.102346 0.0321795 0
0.0743319 -5.02532e-05 0
0.102798 0.0473311 0
0.076792 -0.000738757 0
0 0 0
0.10175 0.00505193 0
0.0790279 -0.00147547 0
0.043942 -0.00298103 0
0.106434 0.00249517 0
0.0810259 -0.0022553 0
0 0 0
0.125621 0.0111628 0
0.129455 0.0138649 0
0.0827953 -0.00305693 0
0.127903 0.00933245 0
0.13334 0.0170223 0
0.110269 -0.000196026 0
0.135942 0.0210935 0
0.135138 0.0154415 0
0.13825 0.0268977 0
0.138774 0.0252607 0
0.129916 0.00751571 0
0.138221 0.0180945 0
0.138664 0.0313216 0
0.139284 0.0240034 0
0.136748 0.0139354 0
0.139197 0.0295682 0
0.133754 0.0101044 0
0.139781 0.0228013 0
0.138525 0.036529 0
0.139919 0.0277121 0
0.13878 0.0366414 0
0.163318 0.0455001 0
0.140243 0.0217623 0
0.13907 0.0365984 0
0.177442 0.0501284 0
0.162703 0.0450214 0
0.139516 0.0364521 0
0.17674 0.0496892 0
0.178747 0.0498583 0
0.175961 0.0491254 0
0.139995 0.0362304 0
0.174685 0.0483 0
0.178744 0.0493625 0
0.161701 0.0438922 0
0.178121 0.0488958 0
0.140896 0.0258482 0
0.140745 0.0208118 0
0.140691 0.0356226 0
0.178699 0.0489236 0
0.173416 0.0473939 0
0.178653 0.0484937 0
0.178871 0.0487535 0
0.141395 0.0350152 0
0.176691 0.0474335 0
0.0843248 -0.00391795 0
0.171784 0.0459756 0
0.178486 0.0478823 0
0.160583 0.0417391 0
0.178767 0.0478874 0
0.178227 0.0471936 0
0.178669 0.048047 0
0.170273 0.0445796 0
0.0462313 -0.00367734 0
0.142335 0.0338368 0
0.178624 0.0475979 0
0.141221 0.0199705 0
0.138278 0.0125162 0
0 0 0
0.177697 0.0460874 0
0.178568 0.0471255 0
0.174434 0.0449541 0
0.140256 0.0158422 0
0.178545 0.046457 0
0.142151 0.0240225 0
0.168555 0.042499 0
0.178472 0.0463815 0
0.143224 0.0327456 0
0.17844 0.0470013 0
0.176952 0.0449044 0
0.178377 0.0456069 0
0.15953 0.0384328 0
0.178333 0.0459824 0
0.167033 0.0405968 0
0.177906 0.0441498 0
0.175802 0.0431076 0
0.178216 0.044462 0
0.141775 0.0191328 0
0.178179 0.0458457 0
0.144338 0.0311587 0
0.171474 0.0412162 0
0.178111 0.0453107 0
0.178154 0.0444089 0
0.178048 0.043318 0
0.178043 0.0447701 0
0.174521 0.0413697 0
0.131857 0.00573355 0
0.165367 0.0380799 0
0.177941 0.0439722 0
0.177716 0.0417515 0
0.145328 0.0297083 0
0.177838 0.043182 0
0.176415 0.0408796 0
0.177782 0.0441449 0
0.177884 0.0421527 0
0.158569 0.034318 0
0.143639 0.0221697 0
0.142316 0.0183535 0
0.17278 0.0390197 0
0.177694 0.0420577 0
0.164046 0.0358886 0
0.177661 0.0430632 0
0.177281 0.0402475 0
0.168079 0.0365919 0
0.177555 0.0409771 0
0.177481 0.0415164 0
0.146514 0.0279798 0
0.17741 0.0424494 0
0.171106 0.0368878 0
0.177436 0.0392036 0
0.177345 0.0419148 0
0.176504 0.0382835 0
0.17737 0.0395153 0
0.17728 0.0413919 0
0.139673 0.011106 0
0.162638 0.0332839 0
0.173826 0.0367836 0
0.142971 0.0175283 0
0.177188 0.0406409 0
0.177227 0.0394287 0
0.177207 0.0381599 0
0.1771 0.0399161 0
0.175547 0.0364575 0
0.147515 0.026388 0
0.169044 0.0342607 0
0.157706 0.0299272 0
0.17698 0.0389108 0
0.176961 0.0402115 0
0.142116 0.0136943 0
0.161638 0.0310542 0
0.176956 0.0364282 0
0.176867 0.0379589 0
0.145297 0.0202071 0
0.176466 0.03568 0
0.176849 0.0392327 0
0.176908 0.036805 0
0.164759 0.0316492 0
0.143627 0.0167407 0
0.174081 0.0341832 0
0.167299 0.0319722 0
0.176715 0.0366889 0
0.176692 0.0378827 0
0.176683 0.034858 0
0.148679 0.0246851 0
0.170281 0.0321635 0
0.176518 0.0381329 0
0.176574 0.0355117 0
0.176469 0.0376789 0
0.160525 0.0285614 0
0.176482 0.0361013 0
0.176421 0.0372381 0
0.172527 0.0321171 0
0.176353 0.0366106 0
0.176535 0.0337206 0
0.176156 0.0329284 0
0.176395 0.0339936 0
0.176288 0.0360079 0
0.165335 0.0293305 0
0.144399 0.0158427 0
0.174407 0.0317065 0
0.149639 0.0230829 0
0.140976 0.00968947 0
0.176197 0.0351746 0
0.176218 0.0338649 0
0.156894 0.025578 0
0.137325 0.00658064 0
0.176238 0.032617 0
0.176111 0.0343845 0
0.159741 0.0263796 0
0.176077 0.035622 0
0.175445 0.0311625 0
0.170477 0.0296276 0
0.1336 0.00391488 0
0.161933 0.0267855 0
0.175993 0.0348256 0
0.175995 0.0333252 0
0.14708 0.0180092 0
0.163833 0.0270477 0
0.145176 0.0149726 0
0.176032 0.0308955 0
0.175876 0.0337336 0
0.175887 0.0323348 0
0.175876 0.0302563 0
0.166407 0.0273144 0
0.175908 0.0311982 0
0.150716 0.021361 0
0.174232 0.0290195 0
0.143903 0.0115547 0
0.168598 0.027409 0
0.17572 0.0322847 0
0.175744 0.0310491 0
0.175602 0.0333516 0
0.158794 0.0239454 0
0.113226 -0.00300629 0
0.175834 0.0293454 0
0.17557 0.032993 0
0.175539 0.032644 0
0.171031 0.0273078 0
0.175496 0.0321472 0
0.17561 0.0298596 0
0.162257 0.0244833 0
0.175454 0.0316671 0
0.175521 0.0304369 0
0.146074 0.0139434 0
0.172802 0.02703 0
0.142185 0.00827425 0
0.175394 0.0310006 0
0.175572 0.0281358 0
0.0856185 -0.00477296 0
0.151601 0.0196996 0
0.175438 0.0274528 0
0.166438 0.0248015 0
0.175337 0.0303624 0
0.15615 0.0212233 0
0.175438 0.0283502 0
0.158136 0.021756 0
0.174191 0.026408 0
0.175257 0.0294979 0
0.159722 0.0220311 0
0.175165 0.0307192 0
0.175273 0.0281648 0
0.1611 0.0222135 0
0.17511 0.0300879 0
0.17518 0.0286771 0
0.175279 0.0269632 0
0.148952 0.0154128 0
0.170818 0.0246283 0
0.174862 0.0257051 0
0.16299 0.0224062 0
0.146962 0.0129314 0
0.175031 0.0292186 0
0.175074 0.027592 0
0.164724 0.02251 0
0.152541 0.0178147 0
0.174925 0.0280486 0
0.175081 0.0252311 0
0.166974 0.0225409 0
0.174973 0.0265687 0
0.175049 0.0246744 0
0.13521 0.00208777 0
0.157413 0.0192921 0
0.174967 0.0254544 0
0.145646 0.00934319 0
0.174702 0.0283335 0
0.143295 0.00682525 0
0.173793 0.0236056 0
0.168904 0.0224378 0
0.174683 0.0280473 0
0.159974 0.0196709 0
0.174784 0.0265175 0
0.174664 0.0277671 0
0.174835 0.0252498 0
0.174637 0.027369 0
0.147973 0.0117119 0
0.174898 0.023654 0
0.174611 0.0269807 0
0.170968 0.0221006 0
0.163005 0.0198791 0
0.174572 0.0264388 0
0.1747 0.0240153 0
0.174535 0.0259129 0
0.153337 0.01599 0
0.1746 0.0245748 0
0.155768 0.0167575 0
0.172442 0.0216325 0
0.15704 0.0170717 0
0.17448 0.0251937 0
0.158188 0.0172561 0
0.166747 0.0198374 0
0.17461 0.0223252 0
0.174541 0.0217501 0
0.174425 0.0245006 0
0.159194 0.0173759 0
0.174522 0.0224686 0
0.174237 0.0255657 0
0.148942 0.0104995 0
0.160537 0.0174895 0
0.173565 0.020838 0
0.174203 0.0250437 0
0.150954 0.0123193 0
0.174347 0.023575 0
0.144325 0.0053844 0
0.161786 0.017551 0
0.140191 0.00294754 0
0.174363 0.0221968 0
0.174155 0.0243236 0
0.174268 0.0226924 0
0.174348 0.0210416 0
0.163467 0.0175724 0
0.17057 0.0192703 0
0.174037 0.0199972 0
0.174087 0.0233454 0
0.154201 0.0138854 0
0.16504 0.0175258 0
0.147352 0.00699089 0
0.174161 0.0215463 0
0.156757 0.0145729 0
0.136601 0.000246043 0
0.173995 0.0220503 0
0.167037 0.0173579 0
0.158549 0.0147909 0
0.173781 0.0230051 0
0.150014 0.00902611 0
0.174129 0.0192994 0
0.174096 0.0188387 0
0.174057 0.0204707 0
0.173768 0.0227605 0
0.173755 0.0225204 0
0.174061 0.0194119 0
0.173737 0.0221834 0
0.160708 0.0148884 0
0.168758 0.0170818 0
0.173097 0.0179161 0
0.173719 0.0218539 0
0.173872 0.0203937 0
0.145286 0.00390851 0
0 0 0
0.173692 0.0213967 0
0.173924 0.019118 0
0.173666 0.0209528 0
0.173926 0.017705 0
0.154973 0.0118251 0
0.0866545 -0.00569736 0
0.170584 0.0165541 0
0.163438 0.0148101 0
0.156098 0.012129 0
0.173629 0.0203471 0
0.156782 0.0122565 0
0.157521 0.0123367 0
0.173593 0.0197649 0
0.1738 0.0178634 0
0.158205 0.0123875 0
0.151009 0.00755387 0
0.17371 0.0183611 0
0.171866 0.015916 0
0.159141 0.0124275 0
0.173544 0.0189883 0
0.166801 0.0144226 0
0.16002 0.0124351 0
0.173326 0.0200337 0
0.153113 0.00862315 0
0.173687 0.0162536 0
0.173578 0.0157711 0
0.173498 0.0182504 0
0.173308 0.0195835 0
0.161204 0.0124032 0
0.173645 0.0163108 0
0.148981 0.0044175 0
0.173282 0.0189752 0
0.172799 0.0149393 0
0.146156 0.00243194 0
0.162332 0.0123332 0
0.173437 0.0172904 0
0.137808 -0.00161029 0
0.173245 0.0181613 0
0.155916 0.00941443 0
0.1735 0.0159443 0
0.163842 0.0121814 0
0.173379 0.0163806 0
0.156998 0.00959509 0
0.170191 0.0134632 0
0.173474 0.0148372 0
0.115268 -0.00592414 0
0.152066 0.00576824 0
0.173138 0.0139275 0
0.173195 0.0170943 0
0.158091 0.00963916 0
0.165265 0.0119703 0
0.173305 0.0152158 0
0.159538 0.00960831 0
0.172817 0.0172914 0
0.142429 -0.000717909 0
0.172813 0.0170827 0
0.167036 0.0115883 0
0.173127 0.0157279 0
0.172809 0.0168784 0
0.172803 0.0165986 0
0.146963 0.000905193 0
0.173235 0.0129925 0
0.172798 0.0163254 0
0.173122 0.0125681 0
0.173224 0.014093 0
0.161439 0.00944213 0
0.172791 0.0159524 0
0.168556 0.0111074 0
0.173215 0.0130295 0
0.172784 0.0155892 0
0.172312 0.0116731 0
0.156788 0.00706628 0
0.157106 0.007083 0
0.172776 0.015098 0
0.173037 0.0140005 0
0.152996 0.00397935 0
0.15744 0.00709991 0
0.157831 0.00708247 0
0.172767 0.0146197 0
0.173111 0.0126574 0
0.163881 0.00903605 0
0.158227 0.00705998 0
0.170117 0.0103275 0
0.172969 0.0112182 0
0.158787 0.00701283 0
0.150474 0.00154027 0
0.172757 0.0139794 0
0.138806 -0.00347609 0
0.159351 0.00695623 0
0.172745 0.0133539 0
0.160131 0.00685443 0
0.155275 0.0041895 0
0.0475259 -0.00446186 0
0.172984 0.0112609 0
0.147664 -0.000630697 0
0.171185 0.00944861 0
0.172371 0.0142338 0
0.172909 0.0118112 0
0.160894 0.00673227 0
0.172722 0.0125233 0
0.166834 0.00822093 0
0.172368 0.0138469 0
0.0874426 -0.00663266 0
0.161931 0.00653015 0
0.172364 0.0133346 0
0.172764 0.00948794 0
0.172694 0.0117078 0
0.172568 0.00903183 0
0.172356 0.0126511 0
0.153936 0.0018321 0
0.162929 0.00629468 0
0.15782 0.00425781 0
0.172797 0.00949585 0
0.171905 0.00819163 0
0.158143 0.00417949 0
0.172649 0.0106352 0
0.172344 0.0117389 0
0.158658 0.00406123 0
0.164245 0.00592233 0
0.172701 0.00905278 0
0.169686 0.00673063 0
0.15944 0.00387539 0
0.148295 -0.00223722 0
0.172596 0.00958275 0
0.165483 0.0054968 0
0.172581 0.00778465 0
0.172322 0.0105272 0
0.172113 0.00691215 0
0.13963 -0.0053716 0
0.171854 0.0113831 0
0.160608 0.00358154 0
0.171857 0.0111943 0
0.171859 0.0110075 0
0.171861 0.0107578 0
0.172516 0.00821919 0
0.144038 -0.00444326 0
0.151744 -0.00172089 0
0.166972 0.00483784 0
0.171863 0.0105108 0
0.154695 -0.000321801 0
0.172282 0.00893068 0
0.171865 0.0101773 0
0.162228 0.00309623 0
0.171866 0.00984721 0
0.158634 0.00149498 0
0.158762 0.0014414 0
0.158889 0.00138745 0
0.172275 0.00565972 0
0.172044 0.00524416 0
0.171866 0.00940095 0
0.172424 0.00688563 0
0.16824 0.00409726 0
0.159074 0.0013058 0
0.159258 0.00122276 0
0.171865 0.00895905 0
0.148812 -0.00385609 0
0.171311 0.00435895 0
0.172355 0.00564576 0
0.159527 0.00109971 0
0.171862 0.00836409 0
0.159797 0.000973791 0
0.172209 0.00686043 0
0.164318 0.00228758 0
0.160225 0.000803468 0
0.171857 0.00777564 0
0.169505 0.00301964 0
0.157036 -0.0011184 0
0.172288 0.00519458 0
0.160656 0.000625778 0
0 0 0
0.171931 0.00360511 0
0.171847 0.00699031 0
0.161286 0.000374905 0
0.140254 -0.00728284 0
0.171254 0.00807185 0
0.116379 -0.00898191 0
0.171834 0.0062157 0
0.1554 -0.00287443 0
0.16192 0.000110727 0
0.171257 0.00768388 0
0.170314 0.00186198 0
0.0879528 -0.00766727 0
0.172133 0.00354519 0
0.171258 0.00718115 0
0.149243 -0.00556685 0
0.166769 0.000967763 0
0.172077 0.00423162 0
0.162765 -0.000282336 0
0.171811 0.00519656 0
0.159352 -0.00176048 0
0.171259 0.00651844 0
0.159569 -0.00187808 0
0.159891 -0.00205482 0
0.163597 -0.000701682 0
0.171436 0.00111655 0
0.171784 0.00419373 0
0.171788 0.00154048 0
0.171259 0.00563919 0
0.152685 -0.00544312 0
0.160354 -0.00231869 0
0.170781 0.000286875 0
0.171906 0.00149956 0
0.164661 -0.00131976 0
0.171253 0.00447531 0
0.171738 0.00289691 0
0.161014 -0.00271054 0
0.16904 -0.00110812 0
0.149555 -0.00728982 0
0.145001 -0.00826653 0
0.155878 -0.00543515 0
0.171842 0.000968746 0
0.165655 -0.00198785 0
0.140701 -0.00922928 0
0.170453 0.00483709 0
0.161951 -0.00329127 0
0.171682 0.00162392 0
0.170454 0.00463402 0
0.171235 0.00294863 0
0.17089 -0.00129579 0
0.170456 0.00443255 0
0.171646 -0.00048906 0
0.170459 0.00417376 0
0.170461 0.00391698 0
0.170464 0.003581 0
0.159742 -0.00500679 0
0.166814 -0.00295228 0
0.159845 -0.00506962 0
0.159947 -0.00513292 0
0.170466 0.0032477 0
0.160093 -0.00522711 0
0.163217 -0.00416109 0
0.171593 7.9652e-06 0
0.160238 -0.00532216 0
0.170469 0.00280696 0
0.160445 -0.00546165 0
0.171193 0.000972707 0
0.17047 0.00236998 0
0.160649 -0.00560298 0
0.160937 -0.00580665 0
0.149764 -0.00912551 0
0.167797 -0.00398729 0
0.170471 0.00179079 0
0.170888 -0.00328868 0
0.171277 -0.00290548 0
0.161221 -0.00601378 0
0.171486 -0.00157435 0
0.17047 0.00121699 0
0.170094 -0.00413386 0
0.15799 -0.00738351 0
0.161613 -0.00630916 0
0.171433 -0.0029878 0
0.164828 -0.00545456 0
0.170466 0.000459982 0
0.156195 -0.00843392 0
0.162001 -0.00661178 0
0.14095 -0.0111986 0
0.171103 -0.00154252 0
0.0881862 -0.00869227 0
0.170459 -0.000289406 0
0.168697 -0.00541582 0
0.153156 -0.00970183 0
0.16252 -0.0070402 0
0.171321 -0.00354355 0
0.169334 0.00101272 0
0.170857 -0.00524506 0
0.170445 -0.00126884 0
0.169336 0.000577219 0
0.163027 -0.00748317 0
0.149847 -0.0109727 0
0.169337 3.64285e-05 0
0.159881 -0.00875911 0
0.160049 -0.00888977 0
0.170424 -0.00223723 0
0.169214 -0.00690034 0
0.166616 -0.00737559 0
0.169336 -0.000652051 0
0.160298 -0.00908545 0
0.163691 -0.00810632 0
0.171124 -0.00546743 0
0.160656 -0.00937511 0
0.145319 -0.012201 0
0.17092 -0.0046838 0
0.169332 -0.00154189 0
0.170387 -0.00348652 0
0.16432 -0.00875929 0
0.161156 -0.00980007 0
0.116548 -0.0122473 0
0.170267 -0.00802415 0
0.156229 -0.011444 0
0.169322 -0.00269923 0
0.170736 -0.00767115 0
0.141019 -0.0131987 0
0.170339 -0.00471991 0
0.169491 -0.00883089 0
0.161831 -0.0104194 0
0.165092 -0.00967154 0
0.149801 -0.012954 0
0.170829 -0.00781209 0
0.169297 -0.00420286 0
0 0 0
0.170258 -0.00628615 0
0.168151 -0.0101482 0
0.167804 -0.00281774 0
0.162707 -0.0113187 0
0.165781 -0.0106353 0
0.167806 -0.00305473 0
0.167807 -0.00329051 0
0.0476472 -0.00532984 0
0.15969 -0.0125026 0
0.167809 -0.00357951 0
0.170567 -0.00852627 0
0.159766 -0.0125711 0
0.159842 -0.0126401 0
0.167811 -0.00386708 0
0.169616 -0.0107336 0
0.159951 -0.0127422 0
0.169243 -0.0061423 0
0.170155 -0.00782992 0
0.167812 -0.00422849 0
0.160061 -0.0128451 0
0.170475 -0.0101006 0
0.160217 -0.0129955 0
0.167813 -0.00458816 0
0.160372 -0.0131477 0
0.166534 -0.0119619 0
0.167813 -0.00504839 0
0.163773 -0.0126246 0
0.16059 -0.0133672 0
0.152968 -0.0145666 0
0.0881101 -0.00985393 0
0.167811 -0.00550639 0
0.149622 -0.014946 0
0.160804 -0.0135903 0
0.140891 -0.0152242 0
0.167807 -0.00609839 0
0.161097 -0.0139084 0
0.169993 -0.00975636 0
0.155961 -0.0149155 0
0.157734 -0.0146814 0
0.167801 -0.00668738 0
0.161382 -0.0142335 0
0.169131 -0.00861418 0
0.16712 -0.0133645 0
0.167788 -0.00745076 0
0.169576 -0.0131141 0
0.161761 -0.0146918 0
0.169961 -0.0128452 0
0.145003 -0.0162459 0
0.164945 -0.0145163 0
0.168737 -0.0139201 0
0.167772 -0.00820984 0
0.162123 -0.0151633 0
0.169791 -0.0116533 0
0.169914 -0.0131354 0
0.167744 -0.00919014 0
0.162584 -0.0158204 0
0.167545 -0.0152131 0
0.149278 -0.0170922 0
0.165621 -0.00739507 0
0.168912 -0.0117168 0
0.159082 -0.0168145 0
0.167708 -0.0101642 0
0.165622 -0.00793044 0
0.159212 -0.0169584 0
0.16301 -0.0165006 0
0.1594 -0.0171732 0
0.140584 -0.017276 0
0.165621 -0.00856638 0
0.169486 -0.0139793 0
0.169348 -0.0155431 0
0.159667 -0.0174896 0
0.167649 -0.0114113 0
0.165615 -0.00934354 0
0.16352 -0.0174358 0
0.165981 -0.0172158 0
0.160032 -0.0179507 0
0.155347 -0.0183933 0
0.167755 -0.0170983 0
0.165603 -0.0103141 0
0.167577 -0.0126492 0
0.160517 -0.0186166 0
0.163965 -0.0184076 0
0.169116 -0.0162727 0
0.165578 -0.0115429 0
0.148794 -0.0192476 0
0.168505 -0.0155457 0
0.167465 -0.0142148 0
0.161129 -0.0195702 0
0.0877225 -0.0109586 0
0.115747 -0.0157424 0
0.168512 -0.0187631 0
0.164438 -0.0197189 0
0.15189 -0.0200869 0
0.165528 -0.0131079 0
0.168788 -0.0186088 0
0.167771 -0.0195063 0
0.14009 -0.0193491 0
0.167329 -0.0157671 0
0.161853 -0.0209254 0
0.168588 -0.0190441 0
0.158055 -0.0210938 0
0.162926 -0.0121537 0
0.158111 -0.0211688 0
0.158166 -0.0212441 0
0.164798 -0.0210749 0
0.144066 -0.0203973 0
0.162927 -0.0124582 0
0.166558 -0.0209028 0
0.158248 -0.0213555 0
0.165437 -0.0150995 0
0.158328 -0.0214676 0
0.162927 -0.0127619 0
0.158444 -0.0216311 0
0.162927 -0.0131159 0
0.158558 -0.021796 0
0.167125 -0.0177015 0
0.162925 -0.0134691 0
0.158717 -0.022033 0
0.162922 -0.0138926 0
0.158873 -0.0222727 0
0.148105 -0.0215723 0
0.162918 -0.014315 0
0.154286 -0.0223217 0
0.167564 -0.0219742 0
0.159085 -0.0226124 0
0.167793 -0.0201936 0
0.162911 -0.0148334 0
0.162621 -0.022832 0
0.159289 -0.022957 0
0.165112 -0.0228596 0
0.165272 -0.0176167 0
0.162902 -0.0153503 0
0.166883 -0.0196176 0
0.16797 -0.0217851 0
0.155796 -0.0230062 0
0 0 0
0.159557 -0.0234386 0
0.162887 -0.0159956 0
0.139427 -0.021445 0
0.15981 -0.023929 0
0.162869 -0.0166388 0
0.162841 -0.0174494 0
0.160129 -0.0246048 0
0.165265 -0.0247033 0
0.166535 -0.0219666 0
0.162808 -0.0182569 0
0.164985 -0.0207624 0
0.160422 -0.0252957 0
0.163301 -0.0254716 0
0.167016 -0.025081 0
0.147269 -0.0239014 0
0.162758 -0.0192773 0
0.167133 -0.0250461 0
0.166348 -0.0257567 0
0.086977 -0.0122323 0
0.160767 -0.0262337 0
0.156452 -0.0258636 0
0.1627 -0.0202931 0
0.15655 -0.026017 0
0.166133 -0.024291 0
0.15669 -0.0262451 0
0.159256 -0.0178852 0
0.165244 -0.027076 0
0.166629 -0.025743 0
0.156888 -0.0265795 0
0.161066 -0.0271956 0
0.162613 -0.0215726 0
0.159257 -0.0185912 0
0.152849 -0.0262255 0
0.138594 -0.0235545 0
0.157159 -0.0270633 0
0.159253 -0.0193932 0
0.142524 -0.0246462 0
0.164504 -0.0246353 0
0.149691 -0.0262593 0
0.162512 -0.0228448 0
0.157516 -0.027755 0
0.161383 -0.028481 0
0.159241 -0.0203293 0
0.166194 -0.0282808 0
0.163651 -0.0290515 0
0.165575 -0.0270884 0
0.159218 -0.0214487 0
0.157963 -0.0287324 0
0.146188 -0.0264071 0
0.165015 -0.0295168 0
0.162366 -0.0244341 0
0.161623 -0.0298041 0
0.113944 -0.0194545 0
0.159177 -0.0228124 0
0.162198 -0.026012 0
0.158485 -0.0300989 0
0.046434 -0.00623183 0
0.164945 -0.0298523 0
0.159104 -0.0244943 0
0.137604 -0.0256795 0
0.161813 -0.0315405 0
0.163728 -0.0293172 0
0.161959 -0.0279592 0
0.164976 -0.032038 0
0.154428 -0.0305316 0
0.154471 -0.0306098 0
0.154513 -0.0306882 0
0.154576 -0.0308041 0
0.164461 -0.0325898 0
0.154638 -0.0309205 0
0.159033 -0.0319875 0
0.164855 -0.0322397 0
0.154728 -0.0310899 0
0.158981 -0.0265792 0
0.154816 -0.0312601 0
0.154939 -0.0315041 0
0.150872 -0.0305081 0
0.144962 -0.0289041 0
0.15513 -0.0239272 0
0.161878 -0.0333277 0
0.155059 -0.0317499 0
0.0858987 -0.0133663 0
0.161689 -0.0298883 0
0.15513 -0.0243339 0
0.163346 -0.033794 0
0.155221 -0.032097 0
0.155128 -0.0247401 0
0.164103 -0.0331095 0
0.155378 -0.0324475 0
0.155125 -0.0251922 0
0.15512 -0.0256435 0
0.155583 -0.0329349 0
0.158777 -0.0291602 0
0.155112 -0.0261594 0
0.151878 -0.0321114 0
0.155776 -0.0334285 0
0.155102 -0.0266744 0
0.159493 -0.0345653 0
0.161315 -0.0322317 0
0.140398 -0.0289702 0
0.155088 -0.0272775 0
0.136469 -0.0278036 0
0.163641 -0.0357464 0
0.161791 -0.0356259 0
0.156019 -0.0341048 0
0.15507 -0.0278792 0
0.162534 -0.0348567 0
0.15624 -0.0347922 0
0.155046 -0.0285986 0
0.163173 -0.0363182 0
0 0 0
0.155017 -0.029316 0
0.158449 -0.0323319 0
0.160895 -0.0345469 0
0.1565 -0.0357197 0
0.154977 -0.0301867 0
0.143451 -0.0315713 0
0.161523 -0.0379895 0
0.154931 -0.0310545 0
0.156723 -0.0366659 0
0.146206 -0.0329872 0
0.159676 -0.0380292 0
0.154866 -0.0321169 0
0.151777 -0.0355522 0
0.151859 -0.0357089 0
0.151975 -0.0359413 0
0.148544 -0.0347062 0
0.160329 -0.0373071 0
0.156954 -0.0379227 0