# vtk DataFile Version 3.0
File generated from DClib
ASCII

DATASET UNSTRUCTURED_GRID
POINTS 4280 float
50 0 0 
50 0.714286 0 
49.3 0.2 0 
48.75 0 0 
50 1.42857 0 
48.6 0.4 0 
49.3 1.61496 0 
48.6 1.10209 0 
50 2.14286 0 
47.9 0.6 0 
48.6 1.79662 0 
47.5 0 0 
47.3692 0.4 0 
48.6 2.48485 0 
50 2.85714 0 
47.9 1.97408 0 
47.2 0.8 0 
49.3 3.01496 0 
47.2 1.47897 0 
46.8155 0.2 0 
48.6 3.16805 0 
47.2 2.14787 0 
50 3.57143 0 
46.5 1 0 
46.25 0 0 
46.1442 0.4 0 
47.9 3.31694 0 
47.2 2.80837 0 
46.0139 0.8 0 
48.6 3.84746 0 
46.5 2.31851 0 
50 4.28571 0 
45.8 1.2 0 
47.2 3.46216 0 
49.3 4.40598 0 
45.4847 0.6 0 
45.8 1.84767 0 
48.6 4.52436 0 
45.8 2.48653 0 
47.2 4.1109 0 
50 5 0 
45 0 0 
46.5 3.60423 0 
44.9248 0.4 0 
47.9 4.64106 0 
45.1 1.4 0 
44.8356 0.8 0 
45.8 3.11804 0 
48.6 5.2 0 
44.6778 1.2 0 
47.2 4.75629 0 
45.1 2.65245 0 
45.8 3.74367 0 
44.3442 0.2 0 
50 5.71429 0 
44.4 1.6 0 
49.3 5.79402 0 
44.1953 1 0 
46.5 4.87026 0 
44.4 2.21092 0 
48.6 5.87564 0 
45.8 4.3649 0 
47.2 5.4 0 
43.75 0 0 
45.1 3.88102 0 
44.4 2.81679 0 
43.7108 0.4 0 
47.9 5.95894 0 
43.6648 0.8 0 
50 6.42857 0 
45.8 4.98318 0 
43.5624 1.2 0 
43.7 1.8 0 
44.4 3.41847 0 
47.2 6.04371 0 
48.6 6.55254 0 
43.3544 1.6 0 
44.4 4.01679 0 
43.0972 0.6 0 
43.7 2.98009 0 
45.8 5.6 0 
46.5 6.12974 0 
45.1 5.09527 0 
50 7.14286 0 
42.9354 1.4 0 
49.3 7.18504 0 
47.2 6.6891 0 
44.4 4.61259 0 
43 2 0 
48.6 7.23195 0 
43 2.57143 0 
42.5 0 0 
45.8 6.21682 0 
42.5017 0.4 0 
42.501 0.8 0 
43.7 4.15152 0 
47.9 7.28306 0 
42.4536 1.2 0 
44.4 5.20672 0 
43 3.14286 0 
42.3128 1.6 0 
47.2 7.33784 0 
50 7.85714 0 
43 3.71429 0 
45.1 6.30473 0 
42.3 2.2 0 
45.8 6.8351 0 
48.6 7.91515 0 
44.4 5.8 0 
41.8847 0.2 0 
41.9198 1 0 
46.5 7.39577 0 
43 4.28571 0 
42.0375 2 0 
43.7 5.31775 0 
42.3 3.30563 0 
47.2 7.99163 0 
44.4 6.39328 0 
41.6932 1.8 0 
43 4.85714 0 
45.8 7.45633 0 
50 8.57143 0 
49.3 8.58504 0 
41.3439 0.8 0 
41.2972 0.4 0 
48.6 8.60338 0 
41.3509 1.2 0 
41.6 2.4 0 
41.25 0 0 
43 5.42857 0 
41.2749 1.6 0 
47.9 8.62592 0 
42.3 4.41991 0 
41.6 2.93194 0 
44.4 6.98741 0 
45.1 7.51898 0 
43.7 6.48225 0 
41.6 3.46892 0 
47.2 8.65213 0 
45.8 8.08196 0 
41.075 2 0 
43 6 0 
40.7343 0.6 0 
50 9.28571 0 
41.6 4.0101 0 
40.792 1.4 0 
46.5 8.68149 0 
48.6 9.29791 0 
44.4 7.58321 0 
40.9 2.6 0 
42.3 5.53939 0 
41.6 4.55464 0 
40.7206 2.4 0 
43 6.57143 0 
45.8 8.71347 0 
47.2 9.32103 0 
40.4568 2.2 0 
40.9 3.63327 0 
40.254 1.2 0 
41.6 5.10169 0 
40.1929 0.8 0 
40.2405 1.6 0 
43.7 7.64848 0 
40.0971 0.4 0 
44.4 8.18153 0 
50 10 0 
40 0 0 
43 7.14286 0 
49.3 10 0 
45.1 8.74755 0 
40.1125 2 0 
48.6 10 0 
41.6 5.65043 0 
42.3 6.66061 0 
40.2 2.8 0 
47.9 10 0 
40.9 4.69041 0 
45.8 9.35233 0 
40.2 3.29518 0 
39.6701 1 0 
47.2 10 0 
44.4 8.78321 0 
43 7.71429 0 
41.6 6.2 0 
39.8372 2.4 0 
39.694 1.8 0 
40.2 3.79918 0 
39.4356 0.2 0 
46.5 10 0 
40.2 4.31053 0 
40.9 5.76188 0 
41.6 6.74957 0 
43.7 8.81991 0 
45.8 10 0 
43 8.28571 0 
39.1626 1.2 0 
39.2094 1.6 0 
39.5 3 0 
40.2 4.82776 0 
44.4 9.38908 0 
42.3 7.78009 0 
39.3972 2.8 0 
39.0478 0.8 0 
39.15 2 0 
39.2146 2.6 0 
38.901 0.4 0 
41.6 7.29831 0 
45.1 10 0 
40.2 5.34939 0 
39.5 3.9672 0 
38.75 0 0 
43 8.85714 0 
38.9501 2.4 0 
40.9 6.83812 0 
38.6674 1.4 0 
40.2 5.87396 0 
44.4 10 0 
41.6 7.84536 0 
38.606 2.2 0 
39.5 4.9672 0 
38.3929 0.6 0 
38.8 3.2 0 
40.2 6.4 0 
43 9.42857 0 
38.5876 2.8 0 
42.3 8.89437 0 
38.8 3.66388 0 
43.7 10 0 
41.6 8.3899 0 
38.1815 1.6 0 
38.8 4.13784 0 
38.1875 2 0 
38.0762 1.2 0 
40.2 6.92604 0 
40.9 7.90959 0 
39.5 5.98688 0 
38.8 4.6202 0 
37.908 0.8 0 
38.0595 2.4 0 
43 10 0 
41.6 8.93108 0 
37.7087 0.4 0 
38.8 5.10927 0 
40.2 7.45061 0 
38.0611 3.2 0 
38.1 3.4 0 
37.9547 3 0 
37.7017 1.8 0 
37.5 0 0 
38.8 5.60338 0 
37.7714 2.8 0 
37.443 1 0 
42.3 10 0 
39.5 7.01312 0 
40.2 7.97224 0 
38.1 4.31163 0 
41.6 9.46806 0 
38.8 6.10085 0 
37.508 2.6 0 
40.9 8.96673 0 
37.225 2 0 
37.1564 1.6 0 
40.2 8.48947 0 
38.8 6.6 0 
36.9953 0.2 0 
38.1 5.25449 0 
37.1656 2.4 0 
41.6 10 0 
36.9945 1.2 0 
37.3144 3.2 0 
37.4 3.6 0 
39.5 8.0328 0 
37.4 4.04077 0 
36.7732 0.8 0 
38.8 7.09915 0 
40.2 9.00082 0 
36.9491 2.8 0 
37.4 4.4891 0 
38.1 6.21608 0 
36.7483 2.2 0 
36.5198 0.4 0 
36.5593 1.4 0 
40.9 10 0 
38.8 7.59662 0 
37.4 4.94372 0 
40.2 9.50482 0 
37.4 5.40338 0 
36.25 0 0 
36.6653 3.4 0 
36.7058 3.6 0 
36.5602 3.2 0 
38.8 8.09073 0 
36.7 3.8 0 
39.5 9.0328 0 
36.2625 2 0 
37.4 5.86682 0 
38.1 7.18392 0 
36.2685 2.4 0 
36.0701 0.6 0 
36.3802 3 0 
36.134 1.6 0 
40.2 10 0 
36.7 4.67076 0 
37.4 6.33278 0 
38.8 8.5798 0 
35.9172 1.2 0 
36.121 2.8 0 
37.4 6.8 0 
35.643 0.8 0 
35.7154 1.8 0 
38.8 9.06216 0 
36.7 5.55647 0 
38.1 8.14551 0 
36.0058 3.6 0 
35.7826 2.6 0 
39.5 10 0 
37.4 7.26722 0 
35.799 3.2 0 
36 4 0 
35.3339 0.4 0 
36 4.42857 0 
38.8 9.53612 0 
36.7 6.45116 0 
37.4 7.73318 0 
35.2354 1 0 
36 4.85714 0 
35.3686 2.4 0 
35.3 2 0 
36 5.28571 0 
35.1141 1.6 0 
38.1 9.08837 0 
35.2874 2.8 0 
35 0 0 
38.8 10 0 
37.4 8.19662 0 
36 5.71429 0 
35.3002 3.6 0 
35.3345 3.8 0 
35.2028 3.4 0 
36.7 7.34884 0 
34.8439 1.2 0 
35.325 4 0 
35.4 4.4 0 
34.8846 2.2 0 
37.4 8.65628 0 
36 6.14286 0 
35.0311 3.2 0 
34.5624 0.2 0 
36 6.57143 0 
34.5169 0.8 0 
35.4 5.22519 0 
34.7799 3 0 
38.1 10 0 
37.4 9.1109 0 
34.4653 1.4 0 
36.7 8.24353 0 
36 7 0 
34.466 2.4 0 
34.3375 2 0 
35.4 6.02519 0 
34.4488 2.8 0 
37.4 9.55923 0 
34.5892 3.6 0 
36 7.42857 0 
34.1509 0.4 0 
34.65 4 0 
34.8 4.8 0 
34.0965 1.6 0 
36 7.85714 0 
34.8 5.19326 0 
34.2571 3.2 0 
37.4 10 0 
35.4 6.81008 0 
36.7 9.12924 0 
34.0407 2.6 0 
34.8 5.57644 0 
33.7626 0.6 0 
33.75 0 0 
36 8.28571 0 
33.7742 1.2 0 
34.8 5.95123 0 
33.7341 1.8 0 
35.4 7.58992 0 
34.8 6.3193 0 
33.9558 3.8 0 
36 8.71429 0 
33.975 4 0 
34.0731 4.4 0 
33.8733 3.6 0 
34.1583 4.8 0 
34.8 6.68233 0 
33.5609 2.4 0 
33.3945 0.8 0 
33.6055 2.8 0 
34.2 5.2 0 
33.7157 3.4 0 
36.7 10 0 
36 9.14286 0 
33.375 2 0 
34.8 7.04201 0 
33.4772 3.2 0 
35.4 8.37481 0 
34.2 5.9151 0 
34.8 7.4 0 
36 9.57143 0 
33.0439 1 0 
33.081 1.6 0 
32.9704 0.4 0 
34.8 7.75799 0 
33.157 3 0 
34.2 6.60082 0 
33.0159 2.2 0 
33.5208 4.8 0 
33.3 4 0 
36 10 0 
33.1528 3.6 0 
34.8 8.11767 0 
35.4 9.17481 0 
33.6 5.6 0 
32.7077 1.2 0 
34.2 7.2689 0 
34.8 8.4807 0 
33.6 5.9252 0 
32.7578 2.8 0 
32.5 0 0 
32.6535 2.4 0 
33.6 6.24536 0 
34.8 8.84877 0 
32.692 3.2 0 
33.6 6.56133 0 
32.3831 1.4 0 
34.2 7.9311 0 
35.4 10 0 
32.4125 2 0 
32.2755 0.8 0 
32.8871 4.8 0 
34.8 9.22356 0 
33.6 6.87394 0 
32.9869 5.2 0 
32.7578 4.4 0 
32.625 4 0 
32.5653 3.8 0 
32.1354 0.2 0 
33.0317 5.6 0 
33.6 7.18402 0 
32.2847 2.6 0 
32.4279 3.6 0 
34.8 9.60674 0 
34.2 8.59918 0 
32.0673 1.6 0 
33 6 0 
33.6 7.49243 0 
32.2071 3.4 0 
33.6 7.8 0 
34.8 10 0 
31.792 0.4 0 
33 6.57143 0 
33.6 8.10757 0 
31.9061 2.8 0 
34.2 9.2849 0 
31.7572 1.8 0 
31.9018 3.2 0 
32.2571 4.8 0 
31.6442 1.2 0 
32.4654 5.6 0 
31.744 2.4 0 
33.6 8.41598 0 
33 7.14286 0 
31.95 4 0 
31.4674 0.6 0 
33.6 8.72606 0 
31.699 3.6 0 
31.45 2 0 
33 7.71429 0 
34.2 10 0 
33.6 9.03867 0 
31.5146 3 0 
32.4 6.4 0 
31.25 0 0 
32.4 6.64623 0 
31.1593 0.8 0 
33.6 9.35464 0 
32.4 6.89749 0 
33 8.28571 0 
31.7874 5.2 0 
31.901 5.6 0 
31.1428 2.2 0 
31.6305 4.8 0 
32.4 7.15296 0 
31.0552 1.6 0 
31.95 6 0 
33.6 9.6748 0 
31.4529 4.4 0 
32.4 7.41178 0 
31.275 4 0 
31.0508 2.8 0 
30.8653 1 0 
31.107 3.2 0 
33 8.85714 0 
31.9183 6.4 0 
32.4 7.67312 0 
33.6 10 0 
31.1644 3.8 0 
32.4 7.93614 0 
30.8327 2.4 0 
30.9663 3.6 0 
30.6155 0.4 0 
32.4 8.2 0 
31.8 6.8 0 
33 9.42857 0 
30.5831 1.2 0 
31.3385 5.6 0 
32.4 8.46386 0 
31.8 7.22776 0 
31.0072 4.8 0 
30.4875 2 0 
30.6799 3.4 0 
31.4346 6.4 0 
32.4 8.72688 0 
30.5169 2.6 0 
33 10 0 
30.3104 1.4 0 
31.8 7.6849 0 
32.4 8.98822 0 
30.6 4 0 
32.4 9.24704 0 
31.8 8.15967 0 
30.3081 3.2 0 
30.0456 0.8 0 
30 0 0 
32.4 9.50251 0 
30.1923 2.8 0 
30.0447 1.6 0 
30.9 6 0 
30.7778 5.6 0 
30.6 5.2 0 
30.2303 3.6 0 
30.949 6.4 0 
32.4 9.75377 0 
31.2 7.2 0 
31.8 8.64033 0 
30.3869 4.8 0 
31.2 7.37817 0 
29.9198 2.4 0 
32.4 10 0 
30.9131 6.8 0 
31.2 7.56641 0 
29.7128 0.2 0 
29.7836 1.8 0 
30.1571 4.4 0 
31.2 7.76306 0 
31.8 9.1151 0 
29.8561 3 0 
31.2 7.96641 0 
29.925 4 0 
31.2 8.17481 0 
29.5243 1.2 0 
30.7917 7.2 0 
30.2186 5.6 0 
30.4615 6.4 0 
29.4405 0.4 0 
31.8 9.57224 0 
29.525 2 0 
31.2 8.38657 0 
29.7547 3.8 0 
31.2 8.6 0 
29.5055 3.2 0 
31.2 8.81343 0 
31.8 10 0 
29.7694 4.8 0 
29.4911 3.6 0 
29.1815 0.6 0 
30.6 7.6 0 
29.2664 2.2 0 
31.2 9.02519 0 
29.3308 2.8 0 
30.3792 7.2 0 
31.2 9.23359 0 
30.6 7.91767 0 
29.85 6 0 
29.9722 6.4 0 
29.0353 1.6 0 
31.2 9.43694 0 
28.934 0.8 0 
30.6 8.26052 0 
29.6609 5.6 0 
30.0126 6.8 0 
31.2 9.63359 0 
29.0053 2.4 0 
29.25 4 0 
29.1374 3.4 0 
31.2 9.82183 0 
29.4232 5.2 0 
30.6 8.6185 0 
28.75 0 0 
29.9629 7.2 0 
31.2 10 0 
28.6965 1 0 
30.6 8.9815 0 
29.1545 4.8 0 
28.7396 2.6 0 
29.4814 6.4 0 
28.5625 2 0 
30.6 9.33948 0 
28.6995 3.2 0 
30 8 0 
28.7491 3.6 0 
29.8269 7.6 0 
28.4673 1.2 0 
28.869 4.4 0 
30 8.14286 0 
29.1047 5.6 0 
30 8.28571 0 
30.6 9.68233 0 
29.5429 7.2 0 
30 8.42857 0 
28.4669 2.8 0 
28.2668 0.4 0 
30 8.57143 0 
28.575 4 0 
28.2447 1.4 0 
30 8.71429 0 
30.6 10 0 
30 8.85714 0 
29.625 8 0 
30 9 0 
28.9891 6.4 0 
29.1 6.8 0 
28.542 4.8 0 
30 9.14286 0 
29.6296 8.28571 0 
28.3376 3.8 0 
28.1847 3 0 
28.027 1.6 0 
28.8 6 0 
28.0897 2.4 0 
30 9.28571 0 
29.1195 7.2 0 
29.6404 8.57143 0 
30 9.42857 0 
28.5498 5.6 0 
30 9.57143 0 
29.6547 8.85714 0 
27.8241 0.8 0 
30 9.71429 0 
29.25 8 0 
27.8127 1.8 0 
29.2534 8.14286 0 
28.0046 3.6 0 
29.6703 9.14286 0 
29.0422 7.6 0 
30 9.85714 0 
29.2602 8.28571 0 
27.8907 3.2 0 
28.2555 5.2 0 
30 10 0 
29.2698 8.42857 0 
29.6846 9.42857 0 
29.9644 10.0356 0 
29.2816 8.57143 0 
28.4953 6.4 0 
29.9288 10.0712 0 
27.9 4 0 
29.2952 8.71429 0 
27.6 2 0 
28.6928 7.2 0 
27.5 0 0 
29.3098 8.85714 0 
29.6954 9.71429 0 
29.8831 10.1169 0 
29.325 9 0 
27.6007 2.8 0 
29.8373 10.1627 0 
27.9316 4.8 0 
28.875 8 0 
29.3402 9.14286 0 
27.4117 1.2 0 
29.7 10 0 
29.3548 9.28571 0 
29.7792 10.2208 0 
27.5826 3.4 0 
28.8917 8.28571 0 
29.3684 9.42857 0 
[...]
POINT_DATA 4280
SCALARS phi float 1
LOOKUP_TABLE default
-1.30459e+06
-14418.5
-1.28822e+06
-1.30483e+06
-13150
-1.27395e+06
-14273.1
-16284.7
-11989.2
-1.23189e+06
-16212.4
-1.3037e+06
-1.25487e+06
-15855
-10834.6
-17793.6
-1.1949e+06
-12881.5
-19763.6
-1.27431e+06
-15473
-20203.1
-9756.42
-1.13528e+06
-1.3038e+06
-1.23605e+06
-17555.6
-20200.8
-1.16628e+06
-14779.6
-22242.9
-8723.7
-1.08345e+06
-20181.1
-11208.5
-1.19046e+06
-24825.9
-14104.9
-25109.3
-19696.5
-7721.45
-1.3015e+06
-22244.9
-1.21946e+06
-16475.8
-1.01407e+06
-1.13923e+06
-24988.4
-13088.1
-1.05254e+06
-19221.2
-27566
-24861.8
-1.25457e+06
-6807.78
-954816
-9275.74
-1.08296e+06
-21336.7
-31350.8
-12157.6
-24339.5
-18274.2
-1.29741e+06
-26886.7
-30834.5
-1.20258e+06
-14594.9
-1.11364e+06
-5895.52
-23815.8
-1.02399e+06
-882747
-30168.1
-17387.4
-10791
-926420
-29494.6
-1.14752e+06
-33608.4
-22961.8
-19572.8
-25645.8
-5114.47
-962424
-7184.23
-15858
-28691.9
-822639
-9681.18
-38987.2
-1.29097e+06
-22115.6
-1.18262e+06
-1.08936e+06
-31461.6
-12008
-995423
-27881.1
-37137.3
-900805
-14883.1
-3619.22
-35601.7
-24001.8
-754205
-20875.6
-2009.83
-27043.4
-1.2281e+06
-1.02992e+06
-17467.5
-34046.4
-799720
-29465.2
-40064.5
-967.016
-26118.3
-839163
-32825
-20554.7
-71478.6
-69539.3
-1.0604e+06
-1.16324e+06
-66292
-969192
-699001
-1.27438e+06
-31569.4
-873816
-61569.9
-35932.6
-47063.5
-25459.2
-23120.1
-27654.7
-43600.4
-56035.7
-350.421
-779764
-30515.7
-1.09888e+06
-305164
-41019.6
-909236
-52358.5
-282946
-25839.9
-639985
-32928.3
-38427.1
-683215
-29474.6
-47497.5
-251939
-723046
-46483
-937015
-36667.4
-1.03356e+06
-849669
-26315.7
-1.1297e+06
0
-695837
-1.25477e+06
-28406.6
-682504
-44493.1
-757585
-657343
-34870.9
-30842.2
-594773
-630410
-40292.7
-212853
-54706.7
-970526
-591411
-40077
-26572.1
-33810
-670427
-792992
-49772.4
-1.17554e+06
-550358
-46269.2
-36279.6
-32901.7
-36351
-501653
0
-907520
-818674
-550282
-42771.1
-170958
-23118.7
-586638
-990911
-738117
-623183
-1.09702e+06
-27264.3
-452622
-40590.9
-52410.2
-1.20616e+06
-31351.1
-654711
-34480.6
-848341
-38325.8
-399190
-20097.9
-688092
-44722.3
-1.023e+06
-519273
-37578.6
-129848
-581316
-26282.7
-60976.7
-350545
0
-790047
-55273.4
-710882
-861854
-36775
-16744.3
-39987.1
-51277.4
-950121
-640825
-298424
-20675.1
-1.0324e+06
-47296.4
-25880.9
-518463
-494290
-547303
-736805
-1.15385e+06
-44961.6
-571808
-883255
-256469
-38428.8
-14239.4
-57390.2
-91815.7
-42353.5
-600098
-16459.5
-685019
-745424
0
-41715.2
-1.05906e+06
-49453
-617968
-211896
-817840
-519557
-481608
-12304.7
-64657
-879579
-40734.6
-12116.3
-562490
-59508.5
-44381.4
-639221
-968384
-758916
-175394
-25493.3
-55898.5
-60115.1
-52266.3
-1.04908e+06
-501103
-485527
-513627
-11151.3
-478516
-9662.8
-643464
-49938
-42467.2
-595073
-887363
-532795
-701547
-140349
-60931.2
-47111.2
0
-747535
-542927
-46284.7
-810178
-650813
-6792.6
-54957.6
-10586.8
-488796
-557680
-114911
-44789.8
-505989
-479433
-859580
-63502.1
-38637.1
-50069.4
-26321.2
-742486
-61793.3
-556897
-601493
-59449.7
-634927
-5011.21
-521746
-944648
-92576.5
-10555.2
-57539.3
-482735
-485659
-488461
-46850.9
-678079
-483344
-28740.6
-558794
0
-55459.5
-487636
-845047
-53358.7
-706101
-28775.4
-493357
-79541.1
-3059.56
-621993
-10820.7
-50837
-517164
-539933
-28036.6
-486062
-26109.5
-473292
-48721.5
-753756
-486401
-30965.8
-568524
-27876.9
-32061.2
-465982
-68394.8
-25872.5
-1672.58
-482184
-33143.8
-676108
-782930
-10945
-582329
-33366.1
-522344
-21688.7
-33293.3
-467927
0
-475012
-5498.63
-453203
-6958.9
-32563.5
-460651
-605051
-447799
-36126.9
-446658
-63565.5
-765.284
-478044
-30178.9
-430871
-1348.32
-38191.6
-28730.9
-21133.7
-544903
-482329
-611317
-18045.3
-420026
-38171.9
-440161
-1040.86
-463353
-61720.1
-427800
-7644.93
-8102.66
-42659.6
-489657
-36616.6
-2267.35
-43423.2
-395325
-634819
-403435
-44004.7
0
-392327
-43852.2
-442646
-15382.6
-85922.7
-401144
-482166
0
-3727.63
-43212.6
0
0
-434206
-416605
-552223
-1282.54
-42423.8
-372472
-390514
-26403.5
-2455.12
-399114
-50756.7
-42392.1
-371064
-24326.3
-68112.4
-480113
-50621.9
-11178.2
-341994
-1372.17
-362011
-342320
-1397.85
-384103
0
-334831
-4919.66
-49479.8
-403920
-420681
-2558.58
-349420
-327196
-41829.7
-42953.4
0
-316811
-59446.8
-456804
-59054.5
-368642
0
-58523.7
-8906.92
-5495.96
-2489.79
-297542
-6526.03
-57911
-308555
0
-6111.31
-5403.48
-56685.6
-359777
-280376
-325463
-291569
-1815.07
0
-57206.2
-20450.1
-333665
-41459.7
-269225
-300027
-339465
-22409.2
-68284.3
0
-287293
-9731.97
-6496.39
-66297.1
-14904.8
-249323
-271242
-431.183
-2273.25
-245254
-4236.55
-255139
-67631.3
0
-316239
0
-48841.2
-235568
-256103
-309827
-1997.22
-221907
-226296
-12279
-18927.8
-23052.5
-250594
-5228.86
0
-75398.2
-12590.2
-23950.4
-75269.7
-202032
0
-730.482
-75414.9
-261562
-201802
-21172.7
-76467.3
-1610.6
-202368
-82384.5
-264964
-71683.8
-195701
0
-30468
-13512.6
-221463
-7095.94
-179394
-63588.2
-234441
-42802.2
-183007
-28871.5
-5461.9
-35000.2
-198848
-188714
-77277.8
-160306
-18606.5
-163701
-1024.72
-9759.97
-79755.8
-33700
-23377
-150887
-8629.54
-161278
-86233.5
-41248.6
-13249.6
-5906.54
-142450
-217379
-167120
-7880.28
-44234.9
-70417.2
-173279
-5408.68
-10291
-138597
-46353.8
-44494.7
-127306
-35119.1
-116796
-25496.7
-132403
-73803.3
-151278
-1888.71
-119304
-40707.9
-78175
-52856.4
-83254
-26245.5
-12475.8
-88046.7
-112831
-120837
-93010.2
-168451
-103055
-92504.3
-87015
-95035.4
-1089.72
-86085.2
-46177.6
-33979.7
-54637.1
-84525.6
-119704
-138640
-100699
-88956.3
-56117.2
-90270.7
-74275.9
-21321.7
-121747
-70188.9
-61963.7
-84482.3
-125212
-85219.2
-108748
-4348.17
-76985.2
-115575
-107018
-141696
-13339.5
-221506
-117953
-88936.4
-62729.7
-400727
-120461
-194969
-2.25969e+08
-119473
-57774.6
-7.98861e+08
-125891
-120298
-66358.3
-31871.7
-78326.4
-120672
-304913
-3.76517e+08
-121150
-69324.1
-1.17469e+08
-61714.9
-9196.54
-110382
-60417.8
-951193
-121305
-3.56318e+07
-79321.4
-115732
-116058
-70854.4
-62782.7
-57333.9
-2.65768e+08
-138145
-704768
-118615
-112823
-118777
0
-117355
-57304.6
-1.58247e+08
-56944.9
-112934
-42748.4
-123919
-50598.2
-67288.6
-314656
-15730.3
-5.27029e+06
-49142
-105672
-111810
-2.1913e+07
-5.372e+07
-114285
-69995.5
-42717.3
-32751.9
-74311.7
-115984
-389620
-7.66572e+07
-98602.3
-116824
-40603.6
-117860
-1.69141e+08
-86863.1
-116823
-52768.4
-111780
-117170
0
-68250.2
-42260.6
-1.87812e+08
-9.70753e+06
-116036
-116670
-76381.6
-5.42019e+06
-106887
-2.08027e+08
-23849.8
-32682
-100836
-54280.4
-4337.38
-86010.3
-111173
-1.46319e+08
-5.31445e+07
-65378.5
-76368.4
-62642.2
-113391
-35903.2
-418379
-47880.4
-29821.6
-114044
-8.81427e+07
0
0
-26136.1
-74337.9
-113250
-1361.9
-1.05901e+08
-109146
-4.53464e+07
-226033
-94450.1
-33500.2
-1.11765e+06
-16750.1
-20867.2
-106242
-30677.2
-1.45897e+07
-107889
-86508.6
-64691.4
-109413
-1.02901e+08
-7.02174e+06
0
-110064
-76917.6
-18931
-110397
-39977.2
-70980.5
-81030.7
-109857
-55596.4
-109490
-55974
-2.01314e+07
0
-107499
-105914
-87314.7
-4.69732e+06
-101756
-16478.8
-20327.5
-82389.8
-99569.3
-4.42186e+07
-91546.7
-224028
-78062.8
-25822.8
-5.44844e+07
-66146.2
-8.21333e+07
-563373
-44098.6
-4.74918
-12894
-104610
-193297
-84838.5
-5.20076e+06
0
-107067
-10319.1
-28903.3
-65329.1
-107690
-9.88746e+07
-107091
0
-74703
-103789
0
-100779
-74.6059
-22009.2
-9934.27
-1.18225e+08
-1.23595e+07
-2.80687e+07
-86698.6
0
-216952
-13387.2
-82008.8
-1465.68
-570.257
-29066.9
-87413.5
-55332.4
-72415.4
-9.28969e+07
-99566.7
-100777
-102279
-5130.8
-7493.95
-103153
-104257
-104665
-105260
-105039
-109710
-105327
-104439
-104456
-30740.7
-615.05
-102908
-6.17114e+07
-103159
-18499.9
-6.61022e+07
-87739.8
-567846
-259647
-103481
-212800
-82285.3
-77514.7
-2170.75
-5530.65
-727902
0
-76693.5
-1675.01
-3.0777e+06
-89813.1
-2182.6
-3.75017e+07
-65694.2
-2106.77
-1657.51
-101229
-96329.1
-101206
-100362
-98578.1
-9.1245e+06
-8475.17
-100295
-6.88185e+07
-87640.9
-3917.76
-184921
-110459
-1895.4
-100391
-15894.2
-88876.2
-81909.2
-1.46463e+07
-1035.55
-2.16322e+07
-1042.61
-69960.6
-1274.84
-2684.82
-88763.3
-1207.07
0
-2.46218e+06
0
-191532
-4.3465e+07
-139402
-98205.8
-98289.7
-98280
-97560
-97196.1
-516.861
-97210
-538.561
-96046.9
-96941.6
-5.27731e+06
-75837.3
-95304.4
-93910.6
-90834.9
-93065.5
-91656.3
-264848
-86107.5
-96554.2
-3.78929e+07
-13615.2
-699.522
-90.1299
-1189.61
0
-643.946
-1697.35
-5.61166e+07
-1125.34
-5247.92
-344.271
-905672
-163306
-1277.49
-1043.76
-1.60199e+07
-1203.36
-89250.8
-94630.7
-94682.2
-1780.95
-61731.1
-93340.4
-92581
-7.15332e+07
-94728
-1003.15
0
-91200.8
-249404
-764.457
-78309.9
-71952.1
-88758.8
-1630.03
-91864.8
-83800
-86464.3
-145.552
-2421.46
-14956.3
-48513.8
-7.60447e+06
-1256.58
0
-389091
-363.289
-66147
-5.68052e+07
-190371
-93264.7
-482.443
-1861.21
-4.04342e+07
-165627
-91603.8
-91867.2
-91710.5
-91983
-90841.3
-1879.08
-90220.6
-88796.3
0
-685.109
-87805.9
-2691.76
-2.11274e+06
-13.8073
-86145.6
0
-85023.7
-302184
-83371.8
-69517
-19289.9
-3.95684e+07
-82384.1
-16.4298
-80993.6
-80357.9
-90503.3
-170.091
-2534.98
-1837.36
-80205.3
-3482.45
-86086
0
-93596.4
-987.466
-147556
-6.75114e+06
-193.524
-88890.9
-87792
-2556.72
-3291.09
-73890.4
-86474
-87.9023
-83878.2
-280208
-2.11647e+07
0
-4.36603e+07
0
-80776.1
-145341
-495.372
-540.143
-1167.03
-1.54562e+07
-1305.25
-4061.22
-264630
-77710.5
-105627
0
-1.99325e+06
-78434.9
-364.673
-75216.8
-94016.2
-97991.7
-59056.4
-184861
-84829.9
-4890.76
-84512.8
0
-83891.6
-1141.55
0
-6.9388e+06
-83376.5
0
0
-3.14863e+07
-81907.3
-16341.9
-80730.4
0
-91660.8
-82120.8
-78794
-196640
-1276.51
-81467.9
-1032.81
0
-77318.6
-5715.89
-75256.8
-3932.29
0
-33.2893
-73792.2
-1213.32
-71890
0
-2213.61
-17224.2
-70715.9
-1.82231e+07
-69221
-3.71515e+07
0
-66622.9
-313393
-81159.9
-6542.57
-1.3441e+07
-68548.9
0
-1.75647e+06
-87082
-95774.3
-79367.8
-174852
-3822.8
-129380
-233.28
-76899.6
-1923.79
0
-435.166
0
-73394.1
-47411.2
-7334.22
-129153
-18391.2
-48.9769
0
-69544.7
-4.28054e+07
-3340.59
-88519.5
-705447
-140379
-122.151
-65952
-51241.6
-76441.4
-1690.55
0
-117474
-8045.5
-75664.4
-75156.1
-644.657
-74598.7
-1065.83
-63109.1
-692.903
-73590.9
-30.3709
-19778.8
-2401.77
-71747.2
-93978.6
-286289
-360.779
-54726.6
-70149.1
-212820
0
-8671.76
-413.638
-2.9725e+07
-67901.8
-2.92575e+06
-554.872
-2.97431e+07
-92759.4
-103404
-176375
-66074.2
-97.4323
-1.79572e+06
-63768.2
-59078.7
-3362.33
-148.839
-71982.7
-62029.9
-9124.02
-377.981
-41601.8
-231524
-21274.1
-59939.3
0
-69465
-1667.11
0
-1325.58
-58532.2
-1588.56
-63814.5
-82063.2
-8.86917e+06
-56872.6
-66333
-63691.7
0
-952.953
-55973.4
-814.978
-1367.48
-1.52366e+07
-9416.21
-90421.6
-62264.2
0
-199640
-67898
-568.971
-22692.7
-338151
-52.0786
-142600
-66605.6
-57963.1
-1211.44
-41365.3
0
-2059.13
-65541.2
-9403.44
-73927.9
-3.24896e+06
-2119.42
-64220.7
-1.54794e+07
-2373.54
-53980.4
-72914.9
-1586.49
-2.14971e+07
-62884.1
-915.149
-205.456
0
-1659.93
-60843.2
-164769
-6.12358e+06
-50722.9
-2829.65
-9168.88
-58986.8
-1084.89
-63184
-23759.9
-49687.3
-56604.2
0
-60123.1
-1155.2
-74898.9
-663.968
-83696.2
-1455.19
-61650.2
-62741.9
-54575.8
0
-57442.6
-576.91
-2.6447e+07
-52167.1
-8654.24
-3030.26
-2467.78
-136271
-55549.3
-58726
-309.566
-241610
-50238.3
-636.01
-132944
-2468.59
-53900.1
-320401
-48033.7
-78242.6
-58552.4
-55242.9
-127.387
-24109
-1.03651e+06
-46396.5
-7821.08
0
-52780.5
-208.361
-11947.7
-528724
-1844.49
-44558.5
-1.48356e+07
-4344.24
-170.522
-27303.1
-114348
-50962.6
-55852.6
-43333.8
-1669.03
-51794.4
-4031.52
-2.35766e+07
-54621.5
-268018
-4081.23
-31877.8
-75671.3
0
-1189.51
-3359.64
-46501.2
-53198.4
-1133.18
-51124.1
-3.84483e+06
-35943.3
-3420.32
-65314.7
-23320.8
-51703.1
-2536.79
-2616.93
0
0
-76885.9
-2.40672e+06
-170302
-50481.4
-49654.8
-42306.2
-40698.1
-2677.84
-230207
-564.457
-21646.7
-963.4
-47721.1
-50702
-45312.4
-1829.61
-49970.1
0
-45381.3
-38675.7
-1.76314e+07
-5219.38
-1889.32
-377488
-43297.7
-20980.4
-49504.4
-38099.6
-49371
-47649
-2029.49
-532.38
-4465.01
-799744
-194944
-40926.7
-65474.5
-1055.13
0
-2547.46
-61.6984
-5.68381e+06
-53772.9
-38907.4
-48734.2
-501.847
-3609.48
-1107.79
-44152.3
-1.75068e+07
-36681.5
-44839.7
-55701.8
-117770
-188.61
-34874.9
-47879.7
-6452.53
-370.204
-34864.4
-165102
-16755.3
-6482.32
-2682.52
-2368.64
-2871.4
-43552.3
-39982.1
-8.91382e+06
-5599.61
-21848.9
-32893.9
0
-57643.2
-46824.9
-5639.15
-42155.8
-403.71
-273971
-31347.3
-138.292
-4635.76
-1.29451e+07
-30983
-35625
-40654.5
-1735.38
-38751.3
-4673.9
-45417.2
-139609
-54798.1
0
-38746.4
-3576.41
-4448.88
0
-39785.7
-1658.79
-362057
-43686.7
-39461.5
-31416.4
-99004.3
-36878.8
-3609.69
-7791.93
-125409
-1114
-110157
0
-6.66722e+06
-845.935
-34718.6
-128062
-2470.38
0
-41476.1
-113697
-6856.64
-2.08265e+06
-99635.7
-36834
-27558.9
-44893.6
-308732
-32704.5
-2493.84
-1.41262e+07
-5779.01
-38801.4
-199028
-3069.87
0
-994.688
-30487.8
-92127.6
-1402.76
-33587
-34170.2
-35601
-734987
-95746.6
-28483.2
-43325.4
-9206.11
-4581.48
-4.48537e+06
-143.973
-263529
-9210.11
0
-1418.85
-32166.3
-8180
-32934.1
-86356.6
-26338
-8185.29
-13468.2
-8789.51
-17589.5
-2547.51
-29769.1
-2655.58
-28164.1
-6999.03
-24437.9
-31667.3
-3311.62
-22387.8
-531.114
-3191.78
-495.845
-205049
-6997.53
-69513.2
-26432.6
-226348
-234782
-1.41848e+07
-81263.9
-190.481
-22437.4
-30274.9
-30306.5
-5677.94
-417305
-143706
-25734.5
-33337.6
-503.443
-29503.7
-5668.46
0
-2.12086e+06
-20680
-28606.2
-34788.3
-2056.43
-10623
-2530.42
-35265.2
-4264.73
-193287
-23084.8
-75918.1
-26912.3
-32369.5
-9512.48
-167.873
-1.1861e+07
0
0
-4246.45
-21724
-25024.2
-26828.4
-8220.98
-2837.54
-69504.7
-936.51
-165659
-23181.4
0
-10021.2
-309435
-8.60019e+06
-1852.97
-6767.8
-24433.5
-17883.2
-2809.71
-4554.08
-1252.98
-12152.7
-6.15317e+06
-106389
-21211.4
-12127.8
-162.034
0
-23996.4
-10965.3
-61397.1
-23314.9
-10932.8
-1513.02
-19330.5
-5198.52
0
-141574
-17639.3
-14171.8
-9584.02
-6148.77
-69033
-21263.4
-9539.41
-22067.8
-51279.3
-22230.1
-24799
-17373.4
-110.277
-1480.88
-1181.45
-20690.5
-3.1285e+06
-8022.12
-401324
-3506.69
-39169.6
-7963.78
-3592.2
0
-21018.2
-15528.3
-120760
-20377.5
-229362
-6320.92
-451.801
-13588.1
-2.47963e+06
-7.67345e+06
-19637.2
-348539
-13646.9
-17149.7
-122399
-12314.5
-6247.84
-166025
-177214
-156623
-266575
-690.977
-148379
-190174
-3035.17
-427.171
-18185.7
-95100.8
-10825.3
-11880
-3129
-141256
-4556.37
-299.537
-2072.08
-205838
-18070.3
-134834
-301221
0
-3.77658e+06
-4879.52
-4472.39
-16621.5
-129018
-13555.7
-9135.18
-13265.9
-16075.8
-123539
0
-169928
-15176.3
-84001.2
-15672.4
-79198
-15124.9
-15029.5
-2847.26
-118243
-16193.4
-13840.8
-301.034
-261331
-7285.52
-15353.7
-2843.68
-13639.7
-13772.3
-10625.6
-15733.5
-7718.74
-15110.3
-113004
-805.193
-9.53372e+06
-12274.8
-13376.5
-2761.26
-4107
-369448
-10049.8
-849813
-12188.3
0
-107594
-1509.6
-10491.4
-69869.5
-225357
-102034
-5355.47
-11729.1
-14222.1
-451.358
-456447
-10384.8
-1352.12
0
-96020.5
-1512.9
-13027.7
-30.7121
-2055.37
-12779.8
-8529.07
-7.49617e+06
-89759.8
-10069.6
-13224.8
-16583.5
-123836
0
-82854.1
-4918.03
-6348.96
-8403.04
-195065
-1276.94
-75653
-51573.3
-16034.4
-67756.2
-59957.7
-15160.6
-3467.58
0
-8445.55
-1343.49
-6460.94
-12140.6
-13490.7
-10113.2
-3.10711e+06
-6319.71
-6.86597e+06
-347293
-260.166
-1412.08
-167701
-6860.9
0
-8889.76
-10970
-11585.5
-10875.2
-1164.37
-217.519
-4401.91
-9386.92
-7158.36
-18177
-1786.7
-4251.02
-5343.1
-9751.61
-18105.3
-9484.12
-215.747
-98012.7
-16707.2
-144494
-4255.75
-1.63598e+06
-7154.06
-16610.2
-2717.49
-14975.2
-63953.2
-937.653
-8473.22
-527.86
-8590.51
-1731.8
-14855.5
0
-9051.75
-3223.52
-7262.29
-2511.88
-262916
-12994.8
0
-123653
-3535.8
0
-12849.3
-7191.35
-443486
-7892.96
-4.14826e+06
-114913
-10800.3
-2379.4
-2916.27
-2.33587e+06
-4338.8
-510.656
-6926.03
-10629.6
-6028.01
-5885.19
-5040.32
-19523.2
-548.941
-106060
-6987.29
-390648
-7122.32
0
-17967.3
-8462.22
-114459
-3548.71
-188139
-983.923
-210119
-2985.74
-169887
-4629.76
-16137.7
-35699.7
-8271.09
-198019
-2.72149e+06
-3210.12
-238378
-153396
-6323.95
-341781
-60448.3
-14042.9
-81582.1
-6093.63
0
-2561.11
-886.872
-2985.53
-137136
-3402.24
-230.05
-5435.23
0
-4804.48
-81334.1
-1773.16
-120005
-1064.63
-5455.82
-5893.61
-11719.2
-4501.89
-101389
-300133
0
-276421
-361671
-21076.3
-2247.08
-6.0084e+06
-1596.68
-20994.1
-19488.2
-2295.87
0
-66529.1
-19374.6
-10.8705
-3851.92
-4589.9
-17610.3
-451506
-4889.18
-9240.08
-148722
-261723
-17470.8
0
-3889.01
-15457.7
0
-1296.12
-1296.55
-3661.85
-2686.7
-4.72696e+06
-15287.9
-4119.62
-3677.03
-2355.63
-72684.4
-1590.33
0
-382.388
-13061.6
-229087
-826.146
-6723.52
-3377.33
-12861.8
-495364
-2882.13
-1930.77
-594.585
-2809.76
-22340.8
-10490.1
-1.67217e+06
0
-10737.9
-20670.5
-199061
0
-762.295
-10264
-4226.47
-6277.72
-108362
-2841.22
0
-1142.53
-1777.45
-18704
-5.28502e+06
-905.565
-1944.48
-2718.59
0
-4333.59
-7852.53
-169.311
-16446.9
-3269.28
-388898
-173412
0
0
-2317.83
-941696
-7610.76
-1187.75
-531.518
-13933.1
-3474.18
-1833.7
-70957.3
0
-1412.62
-23813.2
-720.758
-5303.49
0
-23732.9
-149909
-22124.6
-1769.51
-1354.84
-22009.2
-2272.14
-516.898
-11232.8
-53839.8
-90569.4
-83594.1
-4221.87
-20123.4
0
-53652
-439.78
-5065.56
-19981
-302854
-6122.94
-17825.5
-2.30943e+06
-1013.85
-95889.3
-129113
-3039.74
-1261.46
-17650.3
-43.8577
-8460.19
-110.727
-3035.44
-108767
-15259.5
0
-377.477
-2.17364e+06
0
-1033.91
-120997
-15050.2
0
-16406.4
-1890.64
-133351
-5993.79
-202264
-214238
-190872
-109991
-759.029
-145122
-226490
-179526
-706.428
-156849
-168224
-577.006
-12490.6
-255.071
-240006
-2828.84
0
-24984.5
-486303
-743.388
-254123
-233458
-2289.8
-12249.2
0
-23221.2
-5776.94
-93771.4
-270364
-1.95774e+06
-21143.2
-342.578
-9624.75
-103.257
-94958.9
-436361
-287560
0
-424.822
-2336.38
-1254.07
-18753.5
-10783.7
-151533
-4491.13
-512.761
-9359.68
-325.453
-307959
-388833
-3.78014e+06
-1664.56
0
-16082.8
-1560.07
-6812.04
-69839.8
0
-3383.3
-185.865
-1109.92
-177720
-2103.14
0
-329869
-53.5105
-2740.39
-347200
-26344.6
0
-26277.9
-6540.66
0
-13197.6
-24572.9
0
-24472.2
-570556
0
-876.752
-22472.2
-3.04738e+06
-55797.3
-75512.7
-22346.1
0
-307622
-1214.8
-356405
-4242.02
-130.395
-20057.8
-7027.41
-10207.5
-19898.5
-8144.35
0
0
-3648.49
-17355.1
0
0
-272981
-1492.2
-133595
-3992.19
-69929.6
-2966.17
-17158.8
0
0
-912735
-19654.1
-14425.3
-2054.6
-68.6672
0
-7269.5
0
-775.564
-240087
-14920
0
-14190.9
-27415.7
-70.5527
-2123.58
-103506
-2976.81
-4.27183e+06
-25584.1
-2951.12
-11369.7
0
-556705
-6299.23
-23423.5
-537240
-211574
0
-11101.7
0
-20933.2
-1930.06
-218.68
-94879.1
0
0
-4582.59
-687.592
-8189.38
-8333.43
-132834
-454.833
0
-273.215
-18139.9
-5191.75
-2662.84
-184545
-32370.2
-22685.5
-441256
-8046.09
-7620.87
0
-1744.33
-639.603
-162163
-6656.83
0
-15104.7
-28631.7
0
0
-28595.1
-161071
-71969.1
-31232
-26804.5
-1.31895e+06
-95.4589
0
-5502.18
-26734.5
-190926
-24632.7
-193.174
-1996.93
-24540.9
-2364.72
-219367
-863.549
-7083.72
-11931.9
-80794.1
-22133.2
-356884
-531.116
-5221.42
-139026
-22009.6
-248388
-118.457
-203.334
-2.28707e+06
-19327
-513.394
-7284.83
-82357.2
-19164.4
-279489
-8773.33
-3085.04
-3623.07
-13698.4
-16270.4
-118770
-366.72
0
0
-2227.51
-1488.55
0
-16063.5
0
-285.827
-1.60761e+06
-404.607
-283901
-29594.3
-1228.84
-550.394
-49231.3
-481.637
-13059.5
-28202.7
-809.701
-2847.57
-314742
-27727.6
-11245
-52301.2
-100229
-803.415
-97946.3
-27461.2
-12807.9
-25520.4
-5825.36
-2325.62
-44099.7
-1062.29
-22964.8
-2.415e+06
-9833.43
-838.362
0
0
-1276.19
-538224
-2218.6
-84129.6
-976.029
-220572
-20083.4
-9546.49
-113649
-496203
-16432.1
-1591.59
-356863
-2721.34
-2239.75
-16931.4
-1.92668e+06
-6773.64
-57488.3
-3310.39
-1118.89
-790.714
-1412.79
-646.787
-453311
-30564.7
-900430
-30588.1
-681.15
-3689.83
-130564
-1452.17
-28687.4
-1399.32
-28714.4
-1516.25
0
0
-6474.22
-26473.1
-13606.5
-413873
0
-26485.9
-24240.9
-15456.4
-165886
-213.333
-34819.5
-23907.5
-439443
-2122.36
-23899.3
-147122
-28777.7
-189.42
-2226.3
-374623
-4090.04
-21013.7
-1626.44
-380.917
-10254.9
-20974.4
-434.67
-59147.4
-2161.47
-164375
-56.1239
-60757.9