# vtk DataFile Version 3.0
File generated from DClib
ASCII

DATASET UNSTRUCTURED_GRID
POINTS 1909 float
50 0 0 
48.75 0 0 
50 1.66667 0 
47.5 0 0 
50 3.33333 0 
46.25 0 0 
50 5 0 
45 0 0 
43.75 0 0 
50 6.66667 0 
43 2 0 
42.5 0 0 
50 8.33333 0 
43 4.66667 0 
41.25 0 0 
41.075 2 0 
50 10 0 
40 0 0 
43 7.33333 0 
39.15 2 0 
38.75 0 0 
43 10 0 
37.5 0 0 
37.225 2 0 
36.25 0 0 
36 4 0 
35.3 2 0 
36 5 0 
35 0 0 
35.325 4 0 
36 6 0 
36 7 0 
34.65 4 0 
36 8 0 
33.75 0 0 
33.975 4 0 
36 9 0 
33.375 2 0 
33.3 4 0 
36 10 0 
32.5 0 0 
32.625 4 0 
33 6 0 
31.95 4 0 
33 7.45455 0 
31.45 2 0 
31.25 0 0 
31.95 6 0 
33 8.79545 0 
31.275 4 0 
33 10 0 
30.6 4 0 
30 0 0 
30.9 6 0 
29.925 4 0 
29.525 2 0 
29.85 6 0 
29.25 4 0 
28.75 0 0 
30 8 0 
30 8.45455 0 
28.575 4 0 
29.625 8 0 
30 8.90909 0 
28.8 6 0 
30 9.25 0 
29.782 8.90909 0 
30 9.59091 0 
29.9487 9.59091 0 
29.25 8 0 
29.7462 9.25 0 
30 9.79545 0 
29.897 9.59091 0 
29.564 8.90909 0 
29.9547 9.79545 0 
29.3462 8.45455 0 
29.84 9.59091 0 
30 10 0 
29.8975 9.79545 0 
29.9882 10 0 
29.9902 10.0098 0 
29.7827 9.59091 0 
29.9765 10 0 
29.9804 10.0196 0 
29.9667 10.0098 0 
29.9591 10 0 
29.9686 10.0196 0 
29.9659 10.0341 0 
29.9569 10.0196 0 
29.9418 10 0 
29.9395 10.0196 0 
29.9515 10.0485 0 
29.932 10.0098 0 
29.9424 10.0341 0 
29.8241 9.79545 0 
29.7181 9.59091 0 
29.9166 10 0 
29.9397 10.0485 0 
29.9222 10.0196 0 
29.9279 10.0485 0 
29.9305 10.0695 0 
29.8914 10 0 
29.9077 10.0341 0 
27.9 4 0 
29.897 10.0196 0 
29.9106 10.0485 0 
29.8817 10.0098 0 
29.907 10.0695 0 
29.8933 10.0485 0 
29.9095 10.0905 0 
29.8719 10.0196 0 
27.6 2 0 
29.8556 10 0 
29.8978 10.0905 0 
29.6531 9.59091 0 
29.3437 8.90909 0 
27.5 0 0 
29.8681 10.0485 0 
29.886 10.0905 0 
29.8574 10.0341 0 
29.4839 9.25 0 
29.8723 10.0695 0 
29.7289 9.79545 0 
29.836 10.0196 0 
29.8687 10.0905 0 
29.8197 10 0 
29.8797 10.1203 0 
29.843 10.0485 0 
29.8513 10.0905 0 
29.81 10.0098 0 
29.8561 10.1203 0 
29.8002 10.0196 0 
29.8221 10.0695 0 
29.8072 10.0485 0 
29.8262 10.0905 0 
29.5782 9.59091 0 
29.8498 10.1502 0 
29.7695 10 0 
29.7858 10.0341 0 
29.838 10.1502 0 
29.8215 10.1203 0 
29.8011 10.0905 0 
29.8262 10.1502 0 
29.7714 10.0485 0 
28.875 8 0 
29.75 10.0196 0 
29.8089 10.1502 0 
29.7654 10.0905 0 
29.7193 10 0 
29.7916 10.1502 0 
29.7505 10.0695 0 
29.8079 10.1921 0 
29.7713 10.1203 0 
29.7096 10.0098 0 
29.6047 9.79545 0 
29.503 9.59091 0 
29.7213 10.0485 0 
29.7665 10.1502 0 
29.6999 10.0196 0 
29.7844 10.1921 0 
29.7296 10.0905 0 
29.6856 10.0341 0 
29.7414 10.1502 0 
29.7497 10.1921 0 
29.6503 10 0 
29.7661 10.2339 0 
29.6712 10.0485 0 
29.6999 10.1203 0 
29.7543 10.2339 0 
29.6796 10.0905 0 
29.7057 10.1502 0 
29.7425 10.2339 0 
29.1235 8.90909 0 
29.6309 10.0196 0 
29.6504 10.0695 0 
29.4146 9.59091 0 
29.7252 10.2339 0 
29.6996 10.1921 0 
29.6701 10.1502 0 
29.7079 10.2339 0 
29.6296 10.0905 0 
29.5813 10 0 
29.6023 10.0485 0 
29.5716 10.0098 0 
29.6828 10.2339 0 
29.7086 10.2914 0 
29.2101 9.25 0 
29.562 10.0196 0 
29.6201 10.1502 0 
29.6578 10.2339 0 
29.4428 9.79545 0 
29.5999 10.1203 0 
29.6849 10.2914 0 
29.6283 10.1921 0 
29.5477 10.0341 0 
29.3259 9.59091 0 
29.5608 10.0905 0 
29.5335 10.0485 0 
29.6221 10.2339 0 
29.6503 10.2914 0 
29.5702 10.1502 0 
29.4881 10 0 
29.5128 10.0695 0 
29.6511 10.3489 0 
29.5866 10.2339 0 
29.6392 10.3489 0 
29.4689 10.0196 0 
29.6002 10.2914 0 
29.6273 10.3489 0 
29.4921 10.0905 0 
29.61 10.3489 0 
29.5286 10.1921 0 
29.5016 10.1502 0 
29.5368 10.2339 0 
29.5926 10.3489 0 
29.4405 10.0485 0 
29.2199 9.59091 0 
29.4626 10.1203 0 
29.3949 10 0 
28.9 8.90909 0 
29.5676 10.3489 0 
29.5291 10.2914 0 
29.3853 10.0098 0 
28.6923 8.45455 0 
29.487 10.2339 0 
29.5426 10.3489 0 
29.3758 10.0196 0 
29.5734 10.4266 0 
29.4331 10.1502 0 
29.3993 10.0905 0 
28.5 8 0 
29.3617 10.0341 0 
29.5496 10.4266 0 
29.5071 10.3489 0 
29.2327 9.79545 0 
29.3475 10.0485 0 
29.1136 9.59091 0 
29.4187 10.2339 0 
29.5148 10.4266 0 
29.4716 10.3489 0 
29.3918 10.1921 0 
29.3271 10.0695 0 
29.4298 10.2914 0 
29.2714 10 0 
29.3406 10.1502 0 
28.9208 9.25 0 
29.3066 10.0905 0 
29.4648 10.4266 0 
29.422 10.3489 0 
29.4958 10.5042 0 
29.2524 10.0196 0 
27.75 6 0 
29.3504 10.2339 0 
29.4837 10.5042 0 
29.4718 10.5042 0 
29.2774 10.1203 0 
29.4543 10.5042 0 
29.3724 10.3489 0 
29.2244 10.0485 0 
29.4369 10.5042 0 
29.3938 10.4266 0 
28.9853 9.59091 0 
29.2481 10.1502 0 
28.6766 8.90909 0 
29.4119 10.5042 0 
29.2934 10.2914 0 
27.225 4 0 
29.148 10 0 
29.2582 10.2339 0 
29.1837 10.0905 0 
29.3869 10.5042 0 
29.1385 10.0098 0 
29.3044 10.3489 0 
29.1291 10.0196 0 
29.2072 10.1921 0 
29.3514 10.5042 0 
29.1152 10.0341 0 
29.3929 10.6071 0 
29.2949 10.4266 0 
29.1013 10.0485 0 
29.3686 10.6071 0 
29.316 10.5042 0 
29.2364 10.3489 0 
28.9623 9.79545 0 
29.1257 10.1502 0 
29.1662 10.2339 0 
29.0811 10.0695 0 
28.8566 9.59091 0 
29.3336 10.6071 0 
29.2666 10.5042 0 
29.0609 10.0905 0 
28.9875 10 0 
29.2835 10.6071 0 
29.1448 10.3489 0 
29.0321 10.1203 0 
29.2173 10.5042 0 
29.1098 10.2914 0 
28.125 8 0 
28.9688 10.0196 0 
29.1594 10.4266 0 
28.611 9.25 0 
29.29 10.71 0 
28.4486 8.90909 0 
29.0443 10.2339 0 
29.0033 10.1502 0 
29.2777 10.71 0 
28.9413 10.0485 0 
29.2128 10.6071 0 
29.2655 10.71 0 
29.1497 10.5042 0 
29.2478 10.71 0 
28.7003 9.59091 0 
29.0533 10.3489 0 
29.2303 10.71 0 
28.9629 10.1921 0 
28.9013 10.0905 0 
29.2051 10.71 0 
29.0822 10.5042 0 
29.1801 10.71 0 
28.827 10 0 
29.1144 10.6071 0 
28.8177 10.0098 0 
28.9225 10.2339 0 
28.8085 10.0196 0 
29.1447 10.71 0 
28.7949 10.0341 0 
28.8443 10.1502 0 
28.977 10.4266 0 
28.9322 10.3489 0 
29.1094 10.71 0 
28.7813 10.0485 0 
28.9912 10.5042 0 
29.1562 10.8438 0 
28.5436 9.59091 0 
28.7615 10.0695 0 
28.8669 10.2914 0 
29.1313 10.8438 0 
28.6184 9.79545 0 
29.0602 10.71 0 
28.2207 8.90909 0 
28.7418 10.0905 0 
28.0378 8.45455 0 
28.9798 10.6071 0 
29.0958 10.8438 0 
29.0112 10.71 0 
28.9005 10.5042 0 
28.7136 10.1203 0 
28.7644 10.2339 0 
28.8113 10.3489 0 
29.0454 10.8438 0 
28.6223 10 0 
28.6854 10.1502 0 
28.2746 9.25 0 
28.9441 10.71 0 
28.6042 10.0196 0 
27.75 8 0 
28.9747 10.8438 0 
28.6459 10.1921 0 
28.5773 10.0485 0 
29.0225 10.9775 0 
28.3532 9.59091 0 
28.7804 10.5042 0 
28.736 10.4266 0 
28.8772 10.71 0 
29.0097 10.9775 0 
28.9971 10.9775 0 
28.799 10.6071 0 
28.9791 10.9775 0 
28.5384 10.0905 0 
28.6064 10.2339 0 
28.6543 10.3489 0 
28.9611 10.9775 0 
28.8769 10.8438 0 
27.9867 8.90909 0 
26.25 0 0 
28.9358 10.9775 0 
28.7871 10.71 0 
28.9106 10.9775 0 
28.6607 10.5042 0 
28.4177 10 0 
26.55 4 0 
28.552 10.2914 0 
28.483 10.1502 0 
28.4087 10.0098 0 
28.8751 10.9775 0 
28.3998 10.0196 0 
28.3866 10.0341 0 
28.8399 10.9775 0 
28.6974 10.71 0 
28.3735 10.0485 0 
28.1625 9.59091 0 
28.7436 10.8438 0 
28.4976 10.3489 0 
28.3543 10.0695 0 
28.791 10.9775 0 
28.4052 10.2339 0 
28.3352 10.0905 0 
28.8519 11.1481 0 
28.1869 9.79545 0 
28.5607 10.6071 0 
28.5053 10.5042 0 
28.7423 10.9775 0 
28.8258 11.1481 0 
28.308 10.1203 0 
28.5787 10.71 0 
27.904 9.25 0 
28.7893 11.1481 0 
28.424 10.4266 0 
27.7528 8.90909 0 
28.2807 10.1502 0 
28.6758 10.9775 0 
27.375 8 0 
28.7383 11.1481 0 
28.1619 10 0 
28.5649 10.8438 0 
28.2425 10.1921 0 
28.6096 10.9775 0 
28.1444 10.0196 0 
28.298 10.3489 0 
28.4605 10.71 0 
26.7 6 0 
27.9315 9.59091 0 
28.3503 10.5042 0 
28.6676 11.1481 0 
28.1187 10.0485 0 
28.2042 10.2339 0 
28.5207 10.9775 0 
28.0813 10.0905 0 
28.6814 11.3186 0 
27.3818 8.45455 0 
28.6679 11.3186 0 
28.1516 10.2914 0 
28.5703 11.1481 0 
28.6544 11.3186 0 
28.6358 11.3186 0 
27.5109 8.90909 0 
28.3072 10.71 0 
28.6173 11.3186 0 
28.2524 10.6071 0 
28.4322 10.9775 0 
28.028 10.1502 0 
28.5915 11.3186 0 
28.0989 10.3489 0 
28.33 10.8438 0 
28.5658 11.3186 0 
28.153 10.5042 0 
27.9061 10 0 
27.8975 10.0098 0 
28.5303 11.3186 0 
28.4384 11.1481 0 
27.7002 9.59091 0 
27.889 10.0196 0 
27.8765 10.0341 0 
28.4949 11.3186 0 
28.3154 10.9775 0 
27.9532 10.2339 0 
27.8639 10.0485 0 
28.0276 10.4266 0 
28.1544 10.71 0 
27.8457 10.0695 0 
27.4909 9.25 0 
28.4463 11.3186 0 
27 8 0 
27.8275 10.0905 0 
28.3979 11.3186 0 
27.8015 10.1203 0 
27.6542 9.79545 0 
25.675 2 0 
28.1991 10.9775 0 
27.2691 8.90909 0 
27.9563 10.5042 0 
28.4682 11.5318 0 
28.2625 11.1481 0 
27.7755 10.1502 0 
28.3322 11.3186 0 
27.8502 10.3489 0 
28.4401 11.5318 0 
25.875 4 0 
27.7391 10.1921 0 
28.4019 11.5318 0 
28.0268 10.8438 0 
28.2668 11.3186 0 
27.9602 10.71 0 
28.3498 11.5318 0 
27.4223 9.59091 0 
27.7026 10.2339 0 
27.5927 10 0 
28.0486 10.9775 0 
27.8616 10.6071 0 
27.5762 10.0196 0 
28.1794 11.3186 0 
28.2786 11.5318 0 
27.5519 10.0485 0 
27.6524 10.2914 0 
28.0319 11.1481 0 
27.7108 10.5042 0 
27.5167 10.0905 0 
27.0169 8.90909 0 
28.0924 11.3186 0 
27.6021 10.3489 0 
27.8988 10.9775 0 
28.1818 11.5318 0 
27.7667 10.71 0 
26.625 8 0 
28.255 11.745 0 
27.4664 10.1502 0 
28.2402 11.745 0 
28.2256 11.745 0 
28.2059 11.745 0 
27.978 11.3186 0 
26.7234 8.45455 0 
27.0259 9.25 0 
27.5342 10.4266 0 
28.1863 11.745 0 
27.1442 9.59091 0 
28.0516 11.5318 0 
28.1598 11.745 0 
27.3959 10.2339 0 
28.1334 11.745 0 
27.2793 10 0 
27.2714 10.0098 0 
27.2635 10.0196 0 
27.7086 10.9775 0 
27.6431 10.8438 0 
28.0975 11.745 0 
27.8643 11.3186 0 
27.4661 10.5042 0 
27.2518 10.0341 0 
27.2401 10.0485 0 
28.0617 11.745 0 
26.7648 8.90909 0 
27.5255 10.71 0 
27.7353 11.1481 0 
27.2231 10.0695 0 
28.0133 11.745 0 
27.2061 10.0905 0 
27.8791 11.5318 0 
27.2986 10.3489 0 
27.1818 10.1203 0 
27.9651 11.745 0 
27.3758 10.6071 0 
27.0077 9.79545 0 
27.7174 11.3186 0 
27.1576 10.1502 0 
25 0 0 
27.5193 10.9775 0 
27.9003 11.745 0 
27.1236 10.1921 0 
26.25 8 0 
27.9939 12.0061 0 
25.65 6 0 
27.8359 11.745 0 
26.8136 9.59091 0 
27.0896 10.2339 0 
27.9626 12.0061 0 
27.2853 10.71 0 
25.2 4 0 
27.5713 11.3186 0 
27.9218 12.0061 0 
26.4998 8.90909 0 
27.167 10.5042 0 
27.6541 11.5318 0 
27.0427 10.2914 0 
27.7503 11.745 0 
26.9033 10 0 
27.8677 12.0061 0 
26.8882 10.0196 0 
26.8659 10.0485 0 
26.9958 10.3489 0 
27.2836 10.9775 0 
27.6652 11.745 0 
27.3609 11.1481 0 
27.7955 12.0061 0 
26.499 9.25 0 
[...]
POINT_DATA 1909
SCALARS phi float 1
LOOKUP_TABLE default
VECTORS Displacement float
0 0 0
0 0 0
0 -0.000335706 0
0 0 0
0 -0.000457813 0
0 0 0
0 -0.0003844 0
0 0 0
0 0 0
0 -0.000137716 0
0.000991589 -0.000306855 0
0 0 0
0 0.000272019 0
0.00194338 -0.000188372 0
0 0 0
0.00133062 -0.00030339 0
0 0.000824316 0
0 0 0
0.00260211 0.000436291 0
0.00169923 -0.000308538 0
0 0 0
0.00299441 0.00141458 0
0 0 0
0.00208984 -0.000328949 0
0 0 0
0.00399427 -0.000234214 0
0.00248208 -0.00036459 0
0.00475541 -9.40661e-06 0
0 0 0
0.00427448 -0.000253952 0
0.00533385 0.000305696 0
0.0057509 0.000691378 0
0.00454688 -0.000277792 0
0.00604446 0.00111786 0
0 0 0
0.00481608 -0.000315636 0
0.00622702 0.00156815 0
0.00285374 -0.000413485 0
0.00507647 -0.000358433 0
0.00631696 0.00201938 0
0 0 0
0.00532305 -0.000409477 0
0.00689545 0.00010157 0
0.00555757 -0.000465447 0
0.00765956 0.000699921 0
0.00318462 -0.000473738 0
0 0 0
0.00742085 -0.000113461 0
0.00806335 0.00142557 0
0.00577479 -0.000527423 0
0.00807449 0.00220062 0
0.00597607 -0.00059406 0
0 0 0
0.007859 -0.000327291 0
0.00615899 -0.00066572 0
0.00345703 -0.000544161 0
0.00823121 -0.000555916 0
0.0063226 -0.000742063 0
0 0 0
0.00963778 -6.69197e-05 0
0.0099071 9.83703e-05 0
0.00646704 -0.000822629 0
0.00980579 -0.000214531 0
0.0101712 0.000288104 0
0.00853886 -0.000803719 0
0.0103409 0.00046567 0
0.0102944 0.000173029 0
0.0104873 0.00067748 0
0.0105259 0.000622098 0
0.00995475 -0.000363101 0
0.0104937 0.000298566 0
0.010569 0.000823812 0
0.0105603 0.000570753 0
0.0104067 5.60086e-05 0
0.0106036 0.000748328 0
0.0102205 -0.000200783 0
0.0105939 0.000519199 0
0.0105928 0.00099757 0
0.0106436 0.00067506 0
0.0106097 0.000971146 0
0.0106625 0.000981646 0
0.0106263 0.000472785 0
0.0106274 0.000949119 0
0.0107176 0.000966342 0
0.0106811 0.000942781 0
0.0106524 0.000921393 0
0.0107216 0.000950557 0
0.0107841 0.00094817 0
0.0107292 0.000934567 0
0.0106773 0.000896465 0
0.0107432 0.000911489 0
0.0108413 0.000933067 0
0.0107196 0.000893452 0
0.0107914 0.000922475 0
0.0106955 0.000605509 0
0.0106616 0.000425918 0
0.0107116 0.000862979 0
0.0108435 0.000922235 0
0.0107595 0.000889112 0
0.0108473 0.000910247 0
0.0109143 0.000913869 0
0.0107446 0.000832513 0
0.0108146 0.000881366 0
0.0065895 -0.000908408 0
0.0107848 0.000857975 0
0.0108555 0.000891438 0
0.0107779 0.000831089 0
0.0109188 0.000892709 0
0.0108654 0.00087231 0
0.0109789 0.000895448 0
0.0108104 0.000828707 0
0.00365487 -0.000624132 0
0.0107879 0.000792486 0
0.0109803 0.000885771 0
0.0106979 0.000383019 0
0.0105129 -5.96007e-05 0
0 0 0
0.0108822 0.000844546 0
0.0109825 0.000875553 0
0.0108566 0.000823797 0
0.0106294 0.000139286 0
0.0109323 0.000858209 0
0.0107639 0.000534906 0
0.0108462 0.00078954 0
0.0109872 0.000859833 0
0.0108282 0.000755515 0
0.0110607 0.000870438 0
0.0109004 0.000817633 0
0.0109933 0.000843599 0
0.0108545 0.000754682 0
0.0110635 0.000852038 0
0.0108806 0.000753261 0
0.0109603 0.000807365 0
0.0109276 0.000780779 0
0.011004 0.000819763 0
0.0107397 0.000336796 0
0.0111339 0.000846918 0
0.0108788 0.000708918 0
0.0109183 0.000750086 0
0.0111349 0.000838398 0
0.0110718 0.00082283 0
0.0110162 0.000795979 0
0.0111364 0.000829587 0
0.0109551 0.000745986 0
0.0100995 -0.000515549 0
0.0109254 0.000706511 0
0.0111394 0.000816137 0
0.0110356 0.000762585 0
0.0109251 0.000664716 0
0.0111432 0.000802307 0
0.0110067 0.000738723 0
0.0112262 0.000815784 0
0.01109 0.000778869 0
0.0109464 0.000663823 0
0.0108501 0.000454451 0
0.0107826 0.000292088 0
0.0109927 0.000700165 0
0.01115 0.000781838 0
0.0109677 0.000662589 0
0.0112281 0.000799487 0
0.0110561 0.000730242 0
0.0109985 0.000660063 0
0.0111581 0.000761083 0
0.0112335 0.000774141 0
0.0109817 0.000610019 0
0.011309 0.000786193 0
0.0110291 0.000656906 0
0.0111228 0.00071673 0
0.0113097 0.000778499 0
0.0110855 0.000686487 0
0.0111712 0.000731417 0
0.0113108 0.000770633 0
0.0106122 -0.000173595 0
0.0110198 0.000607165 0
0.0110726 0.000651259 0
0.0108322 0.000240601 0
0.0113128 0.000758747 0
0.0112452 0.000735777 0
0.0111856 0.000701935 0
0.0113152 0.000746587 0
0.0111151 0.000644595 0
0.0110331 0.000556495 0
0.0110757 0.000601208 0
0.0110509 0.000555089 0
0.0113196 0.000728568 0
0.0114115 0.000747263 0
0.0107641 -1.37464e-05 0
0.0110686 0.000553481 0
0.0112072 0.00066114 0
0.0113249 0.000710202 0
0.0109544 0.000353948 0
0.0111736 0.000633611 0
0.011413 0.000732295 0
0.0112674 0.000679951 0
0.0110943 0.000550689 0
0.0108823 0.000188962 0
0.0111546 0.000589363 0
0.0111199 0.000547489 0
0.0113335 0.000683654 0
0.0114165 0.000709401 0
0.0112298 0.000621224 0
0.0110951 0.000489447 0
0.0111567 0.000542096 0
0.0115033 0.00070959 0
0.0113433 0.000656827 0
0.0115039 0.000702338 0
0.0111271 0.000485524 0
0.0114241 0.000674858 0
0.0115047 0.000694981 0
0.0111929 0.000535957 0
0.011506 0.000683965 0
0.0113044 0.000602129 0
0.0112613 0.000567394 0
0.0113584 0.000619089 0
0.0115077 0.000672752 0
0.0111743 0.000478614 0
0.0109396 0.000126787 0
0.0112435 0.000525975 0
0.0111516 0.000422285 0
0.010707 -0.000288323 0
0.0115106 0.000656196 0
0.0114388 0.000623907 0
0.0111667 0.00042015 0
0.0104818 -0.000497707 0
0.0113746 0.00058137 0
0.011514 0.000639323 0
0.0111818 0.000417888 0
0.0116142 0.00065988 0
0.0112927 0.000514782 0
0.0112416 0.000466398 0
0.010229 -0.000672649 0
0.0112037 0.000414304 0
0.0116153 0.000645388 0
0.0115197 0.000614836 0
0.0110759 0.000222135 0
0.0112255 0.000410454 0
0.010996 6.34779e-05 0
0.0113982 0.000529586 0
0.0116178 0.000623563 0
0.0115261 0.000589924 0
0.011359 0.000497341 0
0.0112569 0.000404369 0
0.0114645 0.000550936 0
0.0112193 0.000336342 0
0.011334 0.000445076 0
0.0108981 -0.000174184 0
0.0112879 0.000397762 0
0.0116228 0.000590929 0
0.0115363 0.00055453 0
0.0117125 0.000610584 0
0.0112467 0.000331068 0
0.00877709 -0.00107052 0
0.0114224 0.000478168 0
0.011713 0.000603344 0
0.0117135 0.000596043 0
0.0113315 0.00038744 0
0.0117145 0.000585228 0
0.0115475 0.000518686 0
0.0112871 0.000322528 0
0.0117157 0.000574278 0
0.0116324 0.000542774 0
0.0110603 -1.43267e-05 0
0.0113742 0.000376182 0
0.0107963 -0.000404731 0
0.0117176 0.000558225 0
0.0115048 0.000449555 0
0.00669162 -0.000997287 0
0.0112812 0.000249273 0
0.0114555 0.000408991 0
0.0113448 0.000308621 0
0.0117199 0.000541919 0
0.0112942 0.000246369 0
0.0115641 0.000468888 0
0.0113071 0.000243379 0
0.0114323 0.000358929 0
0.0117236 0.000518319 0
0.011326 0.000238811 0
0.0118272 0.00054515 0
0.0116496 0.000473053 0
0.0113447 0.000234059 0
0.0118281 0.000530268 0
0.0117278 0.00049431 0
0.0115818 0.000418735 0
0.0112129 4.70184e-05 0
0.0114247 0.000285916 0
0.0114884 0.000340162 0
0.0113717 0.00022683 0
0.011122 -9.37994e-05 0
0.0118299 0.000508238 0
0.0117345 0.000460123 0
0.0113984 0.00021923 0
0.0113547 0.000136802 0
0.0118333 0.000475744 0
0.0116066 0.000350504 0
0.011436 0.000207751 0
0.011742 0.000425354 0
0.0115622 0.000312175 0
0.010349 -0.000834113 0
0.0113784 0.000130122 0
0.0116778 0.000374442 0
0.0110293 -0.000350342 0
0.011927 0.000478783 0
0.0108809 -0.000525405 0
0.011531 0.000249117 0
0.0114729 0.000195571 0
0.0119274 0.000471128 0
0.0114131 0.000119729 0
0.0118396 0.00042821 0
0.0119279 0.000463446 0
0.0117533 0.000376783 0
0.0119286 0.000452228 0
0.0111917 -0.000192104 0
0.011632 0.000281994 0
0.0119294 0.000440929 0
0.0115233 0.000177363 0
0.0114627 0.000103558 0
0.0119308 0.000424535 0
0.0117654 0.000327497 0
0.0119323 0.000407964 0
0.0114219 2.26077e-05 0
0.0118509 0.000359547 0
0.0114331 1.89766e-05 0
0.0115724 0.000157932 0
0.0114441 1.52827e-05 0
0.0119348 0.000384158 0
0.0114603 9.72244e-06 0
0.0115314 7.83665e-05 0
0.01172 0.000238346 0
0.0116657 0.00019061 0
0.0119376 0.000360027 0
0.0114764 4.02778e-06 0
0.011783 0.000260031 0
0.012038 0.000390569 0
0.0112571 -0.000292311 0
0.0114995 -4.47156e-06 0
0.0116373 0.000129336 0
0.0120388 0.000374447 0
0.0113616 -0.000183654 0
0.0119419 0.00032581 0
0.0109587 -0.000648575 0
0.0115224 -1.32462e-05 0
0.0106945 -0.000811907 0
0.0118697 0.000262043 0
0.0120401 0.000351067 0
0.0119468 0.000291063 0
0.0118013 0.00019179 0
0.0115546 -2.62262e-05 0
0.0116235 3.91792e-05 0
0.0116992 9.87928e-05 0
0.0120425 0.000317171 0
0.0114999 -0.000123904 0
0.0115863 -3.97404e-05 0
0.0111548 -0.000547783 0
0.0119541 0.000242568 0
0.0115201 -0.000131932 0
0.0104527 -0.000999929 0
0.0120467 0.000268279 0
0.0116296 -5.95464e-05 0
0.0115497 -0.000144176 0
0.012131 0.000299619 0
0.0113296 -0.000416041 0
0.0118262 0.000100277 0
0.011778 5.47882e-05 0
0.0119622 0.000193315 0
0.0121313 0.000291113 0
0.0121317 0.000282608 0
0.0118989 0.000126428 0
0.0121323 0.000270429 0
0.0115919 -0.00016276 0
0.0116719 -8.03257e-05 0
0.0117414 -2.13223e-05 0
0.0121329 0.000258214 0
0.012054 0.000198388 0
0.0110313 -0.000777074 0
0 0 0
0.0121339 0.000240747 0
0.0119738 0.000125817 0
0.0121349 0.000223175 0
0.0118514 7.94479e-06 0
0.0115701 -0.000272309 0
0.00676968 -0.00109254 0
0.011728 -0.000110433 0
0.0116504 -0.000190886 0
0.0115795 -0.000276609 0
0.0121366 0.000198213 0
0.0115889 -0.000280956 0
0.0116026 -0.000287455 0
0.0121384 0.000173029 0
0.0119861 5.73586e-05 0
0.0116162 -0.000294056 0
0.0113956 -0.00054168 0
0.0120661 9.97545e-05 0
0.0117818 -0.000142188 0
0.0116357 -0.00030381 0
0.0121412 0.000137619 0
0.011729 -0.000233349 0
0.0116551 -0.000313777 0
0.0122267 0.000179375 0
0.0115144 -0.000481724 0
0.0119405 -5.79107e-05 0
0.0118838 -0.000113292 0
0.0121443 0.000101811 0
0.0122274 0.000161069 0
0.0116823 -0.000328345 0
0.0120032 -3.46036e-05 0
0.0112718 -0.000771489 0
0.0122284 0.000135207 0
0.0118508 -0.000187512 0
0.0110962 -0.000907837 0
0.011709 -0.000343332 0
0.0121489 5.21283e-05 0
0.0105432 -0.00116924 0
0.0122301 9.84972e-05 0
0.0116481 -0.00045942 0
0.0120849 -3.71335e-05 0
0.0117457 -0.000365008 0
0.0121539 1.81708e-06 0
0.011665 -0.000468708 0
0.0118302 -0.000297181 0
0.0120206 -0.000127637 0
0.00894079 -0.00135516 0
0.0114665 -0.000695673 0
0.0119153 -0.000235421 0
0.0122329 4.64758e-05 0
0.0116898 -0.000482718 0
0.0117815 -0.000387467 0
0.0121611 -6.68839e-05 0
0.0117252 -0.00050368 0
0.0123003 5.40412e-05 0
0.0108593 -0.00114072 0
0.0123006 4.4159e-05 0
0.011829 -0.000419598 0
0.0122375 -2.6787e-05 0
0.0123009 3.43042e-05 0
0.0123014 2.05649e-05 0
0.0111553 -0.00104485 0
0.0120434 -0.000249991 0
0.0123018 6.82979e-06 0
0.0119942 -0.000302523 0
0.0121687 -0.00013646 0
0.0117741 -0.000534846 0
0.0123025 -1.24204e-05 0
0.0118748 -0.000453108 0
0.0121121 -0.000223282 0
0.0123033 -3.17114e-05 0
0.0119534 -0.000392311 0
0.0117157 -0.000648172 0
0.0117235 -0.000653087 0
0.0123044 -5.86971e-05 0
0.0122447 -0.000128933 0
0.0115285 -0.000851367 0
0.0117312 -0.000658039 0
0.0117426 -0.00066541 0
0.0123056 -8.58034e-05 0
0.0121792 -0.000229739 0
0.0118398 -0.000580953 0
0.0117539 -0.000672863 0
0.0119335 -0.000500448 0
0.0120656 -0.000373399 0
0.0117701 -0.000683812 0
0.0113766 -0.00102664 0
0.0123073 -0.000123458 0
0.0106168 -0.00134202 0
0.0117861 -0.00069493 0
0.0123091 -0.000161361 0
0.0118086 -0.000711063 0
0.0116582 -0.000857729 0
0.00376257 -0.000712754 0
0.01219 -0.000324077 0
0.011206 -0.00118359 0
0.0119886 -0.000550064 0
0.0123644 -0.000109916 0
0.0122557 -0.000269406 0
0.0118307 -0.000727531 0
0.0123118 -0.000213453 0
0.0119245 -0.000648836 0
0.012365 -0.00013164 0
0.00682581 -0.00118898 0
0.011861 -0.000751144 0
0.0123658 -0.000161323 0
0.0121475 -0.000470579 0
0.0123146 -0.000265971 0
0.0120926 -0.000532097 0
0.012367 -0.000202345 0
0.0115914 -0.00103999 0
0.0118905 -0.000775396 0
0.0117854 -0.00088086 0
0.012204 -0.000448006 0
0.0120562 -0.000619101 0
0.0117993 -0.000891306 0
0.0123185 -0.000337162 0
0.0123688 -0.000259224 0
0.0118196 -0.000906963 0
0.0119298 -0.000809767 0
0.0122711 -0.000459239 0
0.0120278 -0.000748145 0
0.0118484 -0.00093018 0
0.0112504 -0.00132962 0
0.0123226 -0.000408989 0
0.0119675 -0.00084529 0
0.0122175 -0.000572999 0
0.0123714 -0.000337873 0
0.0121175 -0.000691645 0
0.0106765 -0.00151802 0
0.0124013 -0.000282087 0
0.0118884 -0.000964306 0
0.0124015 -0.000294076 0
0.0124018 -0.000306015 0
0.0124022 -0.000322076 0
0.0123279 -0.000504763 0
0.0109731 -0.00148242 0
0.0114637 -0.00131872 0
0.0120159 -0.000895029 0
0.0124025 -0.000338098 0
0.0116422 -0.00122985 0
0.0123751 -0.000445816 0
0.012403 -0.000359942 0
0.0119418 -0.00101409 0
0.0124035 -0.000381773 0
0.0118408 -0.00111445 0
0.0118471 -0.00111992 0
0.0118534 -0.00112543 0
0.0122337 -0.00073362 0
0.0121879 -0.000790791 0
0.0124042 -0.000411669 0
0.0123332 -0.000601346 0
0.0120614 -0.000946736 0
0.0118626 -0.0011336 0
0.0118717 -0.00114183 0
0.0124049 -0.000441598 0
0.0112862 -0.00147685 0
0.0121448 -0.00089203 0
0.0122903 -0.000710402 0
0.0118847 -0.00115388 0
0.0124058 -0.00048249 0
0.0118977 -0.00116607 0
0.0123802 -0.00059228 0
0.0120105 -0.00108626 0
0.0119157 -0.00118368 0
0.0124067 -0.000523488 0
0.012117 -0.00101816 0
0.0117735 -0.00131962 0
0.0123398 -0.000727718 0
0.0119335 -0.00120155 0
0 0 0
0.0122481 -0.000895028 0
0.0124079 -0.000579096 0
0.0119578 -0.00122703 0
0.0107194 -0.00169656 0
0.0124126 -0.000504168 0
0.00902608 -0.00165601 0
0.0124091 -0.000634917 0
0.0116881 -0.0014564 0
0.0119814 -0.00125304 0
0.0124131 -0.000531086 0
0.0121674 -0.00109273 0
0.00685615 -0.0012936 0
0.0123457 -0.000854916 0
0.0124137 -0.00056638 0
0.0113147 -0.00163259 0
0.012094 -0.0011902 0
0.0123863 -0.000788022 0
0.0120127 -0.00128964 0
0.0124106 -0.000709782 0
0.0118897 -0.00139537 0
0.0124145 -0.000613535 0
0.0119008 -0.00140685 0
0.011917 -0.00142398 0
0.0120428 -0.0013272 0
0.0122629 -0.00109761 0
0.0124119 -0.000784984 0
0.0123102 -0.00103467 0
0.0124155 -0.000677149 0
0.0115254 -0.00165315 0
0.0119399 -0.00144924 0
0.012225 -0.00119414 0
0.0123521 -0.00101788 0
0.0120811 -0.00137941 0
0.0124166 -0.000763142 0
0.0124133 -0.0008844 0
0.0119714 -0.00148607 0
0.0121878 -0.00133867 0
0.0113343 -0.00178904 0
0.011036 -0.00183424 0
0.0117182 -0.00168341 0
0.012392 -0.00104472 0
0.012117 -0.0014333 0
0.0107481 -0.00187756 0
0.0123912 -0.000738505 0
0.0120135 -0.00153929 0
0.0124143 -0.00098424 0
0.0123914 -0.000753664 0
0.0124177 -0.000878924 0
0.0122738 -0.0013003 0
0.0123916 -0.000768758 0
0.0123567 -0.00118137 0
0.0123919 -0.000788181 0
0.0123922 -0.00080754 0
0.0123925 -0.000832995 0
0.0119196 -0.00167581 0
0.0121607 -0.00150722 0
0.0119245 -0.00168176 0
0.0119294 -0.00168774 0
0.0123927 -0.000858393 0
0.0119366 -0.00169661 0
0.0120671 -0.00161553 0
0.0124149 -0.00111398 0
0.0119438 -0.00170552 0
0.0123931 -0.000892191 0
0.011954 -0.00171854 0
0.0124182 -0.00103343 0
0.0123933 -0.000925946 0
0.011964 -0.00173167 0
0.0119781 -0.00175057 0
0.0113456 -0.00195535 0
0.0121998 -0.0015839 0
0.0123936 -0.000971039 0
0.0123233 -0.00144206 0
0.0123596 -0.00138607 0
0.011992 -0.00176969 0
0.0124146 -0.00124409 0
0.0123938 -0.00101611 0
0.0122808 -0.00154843 0
0.0118344 -0.00187103 0
0.0120108 -0.00179683 0
0.0123938 -0.00137381 0
0.0121316 -0.00172392 0
0.0123939 -0.00107616 0
0.0117355 -0.00194934 0
0.012029 -0.0018244 0
0.0107605 -0.00206015 0
0.0124171 -0.00123695 0
0.00686292 -0.0013961 0
0.0123937 -0.00113623 0
0.012244 -0.00168755 0
0.0115513 -0.00203464 0
0.012053 -0.001863 0
0.0124127 -0.00140987 0
0.0123253 -0.00103562 0
0.0123589 -0.00159056 0
0.0123933 -0.00121563 0
0.0123258 -0.00107027 0
0.0120759 -0.00190239 0
0.0113476 -0.0021219 0
0.0123262 -0.00111361 0
0.0119317 -0.00200432 0
0.0119403 -0.00201666 0
0.0123924 -0.00129507 0
0.0122806 -0.00179548 0
0.0122026 -0.00187675 0
0.0123267 -0.00116919 0
0.0119528 -0.00203501 0
0.012105 -0.00195683 0
0.0124089 -0.00157568 0
0.0119704 -0.00206197 0
0.0110493 -0.00219354 0
0.0124121 -0.0015005 0
0.0123269 -0.00124164 0
0.0123908 -0.00139885 0
0.0121319 -0.00201267 0
0.0119946 -0.00210107 0
0.00903064 -0.0019708 0
0.0123526 -0.00184035 0
0.0117331 -0.00221448 0
0.0123268 -0.00133685 0
0.0123846 -0.00178489 0
0.0107591 -0.00224434 0
0.0123884 -0.00150263 0
0.0123163 -0.00193895 0
0.0120265 -0.00215715 0
0.0121642 -0.00208879 0
0.0113396 -0.00229966 0
0.0124013 -0.00178235 0
0.0123256 -0.00146204 0
0 0 0
0.0123844 -0.00163618 0
0.0122702 -0.00209012 0
0.012222 -0.00134967 0
0.0120667 -0.00223678 0
0.0121927 -0.00216727 0
0.0122222 -0.00136948 0
0.0122224 -0.00138922 0
0.00376566 -0.000807279 0
0.0119197 -0.00233007 0
0.0122226 -0.0014134 0
0.0123991 -0.0018348 0
0.0119235 -0.0023364 0
0.0119272 -0.00234276 0
0.0122227 -0.00143749 0
0.0123399 -0.00208861 0
0.0119327 -0.00235217 0
0.0123226 -0.00162578 0
0.0123792 -0.00176955 0
0.0122228 -0.00146782 0
0.0119381 -0.00236162 0
0.0123903 -0.00198826 0
0.0119459 -0.0023754 0
0.0122229 -0.00149805 0
0.0119536 -0.00238927 0
0.0122239 -0.00227272 0
0.0122228 -0.00153684 0
0.0121141 -0.0023488 0
0.0119643 -0.00240919 0
0.0115284 -0.00246627 0
0.00684213 -0.00150893 0
0.0122227 -0.00157552 0
0.0113219 -0.00247717 0
0.0119747 -0.00242928 0
0.0107425 -0.00242914 0
0.0122224 -0.00162568 0
0.0119888 -0.00245772 0
0.0123709 -0.00193812 0
0.0117087 -0.00251845 0
0.01181 -0.00250913 0
0.0122219 -0.00167572 0
0.0120024 -0.0024865 0
0.012316 -0.00183772 0
0.0122485 -0.00238189 0
0.012221 -0.0017408 0
0.0123528 -0.00228376 0
0.0120202 -0.00252664 0
0.0123718 -0.00223885 0
0.0110153 -0.00255805 0
0.0121644 -0.00250497 0
0.0123159 -0.00238408 0
0.0122198 -0.00180574 0
0.0120369 -0.00256743 0
0.0123604 -0.00210606 0
0.0123712 -0.00224862 0
0.0122177 -0.00188994 0
0.012058 -0.00262352 0
0.0122705 -0.00252623 0
0.0112922 -0.00266703 0
0.0120549 -0.00173954 0
0.0123029 -0.00210801 0
0.0118779 -0.0027011 0
0.0122152 -0.00197391 0
0.0120553 -0.0017853 0
0.0118845 -0.00271406 0
0.0120771 -0.00268077 0
0.0118939 -0.00273331 0
0.0107126 -0.00261471 0
0.0120556 -0.00183979 0
0.0123445 -0.00231398 0
0.0123476 -0.00248727 0
0.0119073 -0.00276149 0
0.0122112 -0.00208192 0
0.0120556 -0.0019065 0
0.0120995 -0.00275838 0
0.0122083 -0.00272049 0
0.0119254 -0.0028022 0
0.0116609 -0.00281965 0
0.012282 -0.00267605 0
0.0120552 -0.00198997 0
0.0122064 -0.00218954 0
0.011949 -0.00286028 0
0.0121186 -0.00283796 0
0.0123252 -0.0025204 0
0.0120539 -0.00209589 0
0.0112522 -0.00285607 0
0.0122788 -0.00244626 0
0.012199 -0.00232626 0
0.0119782 -0.00294218 0
0.00679686 -0.0016144 0
0.00895372 -0.00229571 0
0.0123109 -0.00278197 0
0.0121384 -0.00294427 0
0.0114417 -0.00294821 0
0.0120509 -0.00223116 0
0.0123179 -0.00274694 0
0.0122817 -0.00287052 0
0.010669 -0.00279985 0
0.0121902 -0.00246227 0
0.0120116 -0.00305643 0
0.0122969 -0.0027702 0
0.0118075 -0.00306584 0
0.0118482 -0.00215062 0
0.0118104 -0.00307244 0
0.0118132 -0.00307905 0
0.0121526 -0.00305371 0
0.010936 -0.00292567 0
0.0118483 -0.00217695 0
0.0122293 -0.00301416 0
0.0118174 -0.00308882 0
0.0120451 -0.00240382 0
0.0118215 -0.00309863 0
0.0118485 -0.00220321 0
0.0118274 -0.00311291 0
0.0118485 -0.0022338 0
0.0118332 -0.00312725 0
0.0121772 -0.00263235 0
0.0118485 -0.00226431 0
0.0118412 -0.00314782 0
0.0118484 -0.0023009 0
0.011849 -0.00316853 0
0.0111978 -0.00305819 0
0.0118482 -0.00233739 0
0.011582 -0.00315649 0
0.0122656 -0.00307244 0
0.0118595 -0.00319777 0
0.0122369 -0.00286011 0
0.0118478 -0.0023822 0
0.0120448 -0.00321414 0
0.0118695 -0.00322728 0
0.0121624 -0.00319761 0
0.0120344 -0.00262273 0
0.0118472 -0.00242687 0
0.0121621 -0.00280115 0
0.0122635 -0.00301705 0
0.01167 -0.00322219 0
0 0 0
0.0118825 -0.00326831 0
0.0118463 -0.00248266 0
0.010613 -0.00298491 0
0.0118946 -0.00330987 0
0.0118452 -0.00253828 0
0.0118434 -0.0026084 0
0.0119094 -0.00336678 0
0.0121631 -0.00334616 0
0.0121403 -0.00300829 0
0.0118413 -0.00267825 0
0.0120157 -0.00289698 0
0.0119226 -0.00342463 0
0.0120694 -0.00342946 0
0.0122249 -0.00332902 0
0.011133 -0.00325863 0
0.011838 -0.00276658 0
0.0122165 -0.00330846 0
0.0122013 -0.00340779 0
0.00672201 -0.00173152 0
0.0119375 -0.00350269 0
0.0116969 -0.00346876 0
0.0118341 -0.00285449 0
0.0117021 -0.00348207 0
0.0121153 -0.00321318 0
0.0117094 -0.00350182 0
0.0115617 -0.00264787 0
0.0121512 -0.00353801 0
0.0121677 -0.00335342 0
0.0117196 -0.00353066 0
0.0119495 -0.00358233 0
0.0118284 -0.00296527 0
0.0115621 -0.00270864 0
0.0114774 -0.00348744 0