# vtk DataFile Version 3.0
File generated from DClib
ASCII

DATASET UNSTRUCTURED_GRID
POINTS 1909 float
50 0 0 
48.75 0 0 
50 1.66667 0 
47.5 0 0 
50 3.33333 0 
46.25 0 0 
50 5 0 
45 0 0 
43.75 0 0 
50 6.66667 0 
43 2 0 
42.5 0 0 
50 8.33333 0 
43 4.66667 0 
41.25 0 0 
41.075 2 0 
50 10 0 
40 0 0 
43 7.33333 0 
39.15 2 0 
38.75 0 0 
43 10 0 
37.5 0 0 
37.225 2 0 
36.25 0 0 
36 4 0 
35.3 2 0 
36 5 0 
35 0 0 
35.325 4 0 
36 6 0 
36 7 0 
34.65 4 0 
36 8 0 
33.75 0 0 
33.975 4 0 
36 9 0 
33.375 2 0 
33.3 4 0 
36 10 0 
32.5 0 0 
32.625 4 0 
33 6 0 
31.95 4 0 
33 7.45455 0 
31.45 2 0 
31.25 0 0 
31.95 6 0 
33 8.79545 0 
31.275 4 0 
33 10 0 
30.6 4 0 
30 0 0 
30.9 6 0 
29.925 4 0 
29.525 2 0 
29.85 6 0 
29.25 4 0 
28.75 0 0 
30 8 0 
30 8.45455 0 
28.575 4 0 
29.625 8 0 
30 8.90909 0 
28.8 6 0 
30 9.25 0 
29.782 8.90909 0 
30 9.59091 0 
29.9487 9.59091 0 
29.25 8 0 
29.7462 9.25 0 
30 9.79545 0 
29.897 9.59091 0 
29.564 8.90909 0 
29.9547 9.79545 0 
29.3462 8.45455 0 
29.84 9.59091 0 
30 10 0 
29.8975 9.79545 0 
29.9882 10 0 
29.9902 10.0098 0 
29.7827 9.59091 0 
29.9765 10 0 
29.9804 10.0196 0 
29.9667 10.0098 0 
29.9591 10 0 
29.9686 10.0196 0 
29.9659 10.0341 0 
29.9569 10.0196 0 
29.9418 10 0 
29.9395 10.0196 0 
29.9515 10.0485 0 
29.932 10.0098 0 
29.9424 10.0341 0 
29.8241 9.79545 0 
29.7181 9.59091 0 
29.9166 10 0 
29.9397 10.0485 0 
29.9222 10.0196 0 
29.9279 10.0485 0 
29.9305 10.0695 0 
29.8914 10 0 
29.9077 10.0341 0 
27.9 4 0 
29.897 10.0196 0 
29.9106 10.0485 0 
29.8817 10.0098 0 
29.907 10.0695 0 
29.8933 10.0485 0 
29.9095 10.0905 0 
29.8719 10.0196 0 
27.6 2 0 
29.8556 10 0 
29.8978 10.0905 0 
29.6531 9.59091 0 
29.3437 8.90909 0 
27.5 0 0 
29.8681 10.0485 0 
29.886 10.0905 0 
29.8574 10.0341 0 
29.4839 9.25 0 
29.8723 10.0695 0 
29.7289 9.79545 0 
29.836 10.0196 0 
29.8687 10.0905 0 
29.8197 10 0 
29.8797 10.1203 0 
29.843 10.0485 0 
29.8513 10.0905 0 
29.81 10.0098 0 
29.8561 10.1203 0 
29.8002 10.0196 0 
29.8221 10.0695 0 
29.8072 10.0485 0 
29.8262 10.0905 0 
29.5782 9.59091 0 
29.8498 10.1502 0 
29.7695 10 0 
29.7858 10.0341 0 
29.838 10.1502 0 
29.8215 10.1203 0 
29.8011 10.0905 0 
29.8262 10.1502 0 
29.7714 10.0485 0 
28.875 8 0 
29.75 10.0196 0 
29.8089 10.1502 0 
29.7654 10.0905 0 
29.7193 10 0 
29.7916 10.1502 0 
29.7505 10.0695 0 
29.8079 10.1921 0 
29.7713 10.1203 0 
29.7096 10.0098 0 
29.6047 9.79545 0 
29.503 9.59091 0 
29.7213 10.0485 0 
29.7665 10.1502 0 
29.6999 10.0196 0 
29.7844 10.1921 0 
29.7296 10.0905 0 
29.6856 10.0341 0 
29.7414 10.1502 0 
29.7497 10.1921 0 
29.6503 10 0 
29.7661 10.2339 0 
29.6712 10.0485 0 
29.6999 10.1203 0 
29.7543 10.2339 0 
29.6796 10.0905 0 
29.7057 10.1502 0 
29.7425 10.2339 0 
29.1235 8.90909 0 
29.6309 10.0196 0 
29.6504 10.0695 0 
29.4146 9.59091 0 
29.7252 10.2339 0 
29.6996 10.1921 0 
29.6701 10.1502 0 
29.7079 10.2339 0 
29.6296 10.0905 0 
29.5813 10 0 
29.6023 10.0485 0 
29.5716 10.0098 0 
29.6828 10.2339 0 
29.7086 10.2914 0 
29.2101 9.25 0 
29.562 10.0196 0 
29.6201 10.1502 0 
29.6578 10.2339 0 
29.4428 9.79545 0 
29.5999 10.1203 0 
29.6849 10.2914 0 
29.6283 10.1921 0 
29.5477 10.0341 0 
29.3259 9.59091 0 
29.5608 10.0905 0 
29.5335 10.0485 0 
29.6221 10.2339 0 
29.6503 10.2914 0 
29.5702 10.1502 0 
29.4881 10 0 
29.5128 10.0695 0 
29.6511 10.3489 0 
29.5866 10.2339 0 
29.6392 10.3489 0 
29.4689 10.0196 0 
29.6002 10.2914 0 
29.6273 10.3489 0 
29.4921 10.0905 0 
29.61 10.3489 0 
29.5286 10.1921 0 
29.5016 10.1502 0 
29.5368 10.2339 0 
29.5926 10.3489 0 
29.4405 10.0485 0 
29.2199 9.59091 0 
29.4626 10.1203 0 
29.3949 10 0 
28.9 8.90909 0 
29.5676 10.3489 0 
29.5291 10.2914 0 
29.3853 10.0098 0 
28.6923 8.45455 0 
29.487 10.2339 0 
29.5426 10.3489 0 
29.3758 10.0196 0 
29.5734 10.4266 0 
29.4331 10.1502 0 
29.3993 10.0905 0 
28.5 8 0 
29.3617 10.0341 0 
29.5496 10.4266 0 
29.5071 10.3489 0 
29.2327 9.79545 0 
29.3475 10.0485 0 
29.1136 9.59091 0 
29.4187 10.2339 0 
29.5148 10.4266 0 
29.4716 10.3489 0 
29.3918 10.1921 0 
29.3271 10.0695 0 
29.4298 10.2914 0 
29.2714 10 0 
29.3406 10.1502 0 
28.9208 9.25 0 
29.3066 10.0905 0 
29.4648 10.4266 0 
29.422 10.3489 0 
29.4958 10.5042 0 
29.2524 10.0196 0 
27.75 6 0 
29.3504 10.2339 0 
29.4837 10.5042 0 
29.4718 10.5042 0 
29.2774 10.1203 0 
29.4543 10.5042 0 
29.3724 10.3489 0 
29.2244 10.0485 0 
29.4369 10.5042 0 
29.3938 10.4266 0 
28.9853 9.59091 0 
29.2481 10.1502 0 
28.6766 8.90909 0 
29.4119 10.5042 0 
29.2934 10.2914 0 
27.225 4 0 
29.148 10 0 
29.2582 10.2339 0 
29.1837 10.0905 0 
29.3869 10.5042 0 
29.1385 10.0098 0 
29.3044 10.3489 0 
29.1291 10.0196 0 
29.2072 10.1921 0 
29.3514 10.5042 0 
29.1152 10.0341 0 
29.3929 10.6071 0 
29.2949 10.4266 0 
29.1013 10.0485 0 
29.3686 10.6071 0 
29.316 10.5042 0 
29.2364 10.3489 0 
28.9623 9.79545 0 
29.1257 10.1502 0 
29.1662 10.2339 0 
29.0811 10.0695 0 
28.8566 9.59091 0 
29.3336 10.6071 0 
29.2666 10.5042 0 
29.0609 10.0905 0 
28.9875 10 0 
29.2835 10.6071 0 
29.1448 10.3489 0 
29.0321 10.1203 0 
29.2173 10.5042 0 
29.1098 10.2914 0 
28.125 8 0 
28.9688 10.0196 0 
29.1594 10.4266 0 
28.611 9.25 0 
29.29 10.71 0 
28.4486 8.90909 0 
29.0443 10.2339 0 
29.0033 10.1502 0 
29.2777 10.71 0 
28.9413 10.0485 0 
29.2128 10.6071 0 
29.2655 10.71 0 
29.1497 10.5042 0 
29.2478 10.71 0 
28.7003 9.59091 0 
29.0533 10.3489 0 
29.2303 10.71 0 
28.9629 10.1921 0 
28.9013 10.0905 0 
29.2051 10.71 0 
29.0822 10.5042 0 
29.1801 10.71 0 
28.827 10 0 
29.1144 10.6071 0 
28.8177 10.0098 0 
28.9225 10.2339 0 
28.8085 10.0196 0 
29.1447 10.71 0 
28.7949 10.0341 0 
28.8443 10.1502 0 
28.977 10.4266 0 
28.9322 10.3489 0 
29.1094 10.71 0 
28.7813 10.0485 0 
28.9912 10.5042 0 
29.1562 10.8438 0 
28.5436 9.59091 0 
28.7615 10.0695 0 
28.8669 10.2914 0 
29.1313 10.8438 0 
28.6184 9.79545 0 
29.0602 10.71 0 
28.2207 8.90909 0 
28.7418 10.0905 0 
28.0378 8.45455 0 
28.9798 10.6071 0 
29.0958 10.8438 0 
29.0112 10.71 0 
28.9005 10.5042 0 
28.7136 10.1203 0 
28.7644 10.2339 0 
28.8113 10.3489 0 
29.0454 10.8438 0 
28.6223 10 0 
28.6854 10.1502 0 
28.2746 9.25 0 
28.9441 10.71 0 
28.6042 10.0196 0 
27.75 8 0 
28.9747 10.8438 0 
28.6459 10.1921 0 
28.5773 10.0485 0 
29.0225 10.9775 0 
28.3532 9.59091 0 
28.7804 10.5042 0 
28.736 10.4266 0 
28.8772 10.71 0 
29.0097 10.9775 0 
28.9971 10.9775 0 
28.799 10.6071 0 
28.9791 10.9775 0 
28.5384 10.0905 0 
28.6064 10.2339 0 
28.6543 10.3489 0 
28.9611 10.9775 0 
28.8769 10.8438 0 
27.9867 8.90909 0 
26.25 0 0 
28.9358 10.9775 0 
28.7871 10.71 0 
28.9106 10.9775 0 
28.6607 10.5042 0 
28.4177 10 0 
26.55 4 0 
28.552 10.2914 0 
28.483 10.1502 0 
28.4087 10.0098 0 
28.8751 10.9775 0 
28.3998 10.0196 0 
28.3866 10.0341 0 
28.8399 10.9775 0 
28.6974 10.71 0 
28.3735 10.0485 0 
28.1625 9.59091 0 
28.7436 10.8438 0 
28.4976 10.3489 0 
28.3543 10.0695 0 
28.791 10.9775 0 
28.4052 10.2339 0 
28.3352 10.0905 0 
28.8519 11.1481 0 
28.1869 9.79545 0 
28.5607 10.6071 0 
28.5053 10.5042 0 
28.7423 10.9775 0 
28.8258 11.1481 0 
28.308 10.1203 0 
28.5787 10.71 0 
27.904 9.25 0 
28.7893 11.1481 0 
28.424 10.4266 0 
27.7528 8.90909 0 
28.2807 10.1502 0 
28.6758 10.9775 0 
27.375 8 0 
28.7383 11.1481 0 
28.1619 10 0 
28.5649 10.8438 0 
28.2425 10.1921 0 
28.6096 10.9775 0 
28.1444 10.0196 0 
28.298 10.3489 0 
28.4605 10.71 0 
26.7 6 0 
27.9315 9.59091 0 
28.3503 10.5042 0 
28.6676 11.1481 0 
28.1187 10.0485 0 
28.2042 10.2339 0 
28.5207 10.9775 0 
28.0813 10.0905 0 
28.6814 11.3186 0 
27.3818 8.45455 0 
28.6679 11.3186 0 
28.1516 10.2914 0 
28.5703 11.1481 0 
28.6544 11.3186 0 
28.6358 11.3186 0 
27.5109 8.90909 0 
28.3072 10.71 0 
28.6173 11.3186 0 
28.2524 10.6071 0 
28.4322 10.9775 0 
28.028 10.1502 0 
28.5915 11.3186 0 
28.0989 10.3489 0 
28.33 10.8438 0 
28.5658 11.3186 0 
28.153 10.5042 0 
27.9061 10 0 
27.8975 10.0098 0 
28.5303 11.3186 0 
28.4384 11.1481 0 
27.7002 9.59091 0 
27.889 10.0196 0 
27.8765 10.0341 0 
28.4949 11.3186 0 
28.3154 10.9775 0 
27.9532 10.2339 0 
27.8639 10.0485 0 
28.0276 10.4266 0 
28.1544 10.71 0 
27.8457 10.0695 0 
27.4909 9.25 0 
28.4463 11.3186 0 
27 8 0 
27.8275 10.0905 0 
28.3979 11.3186 0 
27.8015 10.1203 0 
27.6542 9.79545 0 
25.675 2 0 
28.1991 10.9775 0 
27.2691 8.90909 0 
27.9563 10.5042 0 
28.4682 11.5318 0 
28.2625 11.1481 0 
27.7755 10.1502 0 
28.3322 11.3186 0 
27.8502 10.3489 0 
28.4401 11.5318 0 
25.875 4 0 
27.7391 10.1921 0 
28.4019 11.5318 0 
28.0268 10.8438 0 
28.2668 11.3186 0 
27.9602 10.71 0 
28.3498 11.5318 0 
27.4223 9.59091 0 
27.7026 10.2339 0 
27.5927 10 0 
28.0486 10.9775 0 
27.8616 10.6071 0 
27.5762 10.0196 0 
28.1794 11.3186 0 
28.2786 11.5318 0 
27.5519 10.0485 0 
27.6524 10.2914 0 
28.0319 11.1481 0 
27.7108 10.5042 0 
27.5167 10.0905 0 
27.0169 8.90909 0 
28.0924 11.3186 0 
27.6021 10.3489 0 
27.8988 10.9775 0 
28.1818 11.5318 0 
27.7667 10.71 0 
26.625 8 0 
28.255 11.745 0 
27.4664 10.1502 0 
28.2402 11.745 0 
28.2256 11.745 0 
28.2059 11.745 0 
27.978 11.3186 0 
26.7234 8.45455 0 
27.0259 9.25 0 
27.5342 10.4266 0 
28.1863 11.745 0 
27.1442 9.59091 0 
28.0516 11.5318 0 
28.1598 11.745 0 
27.3959 10.2339 0 
28.1334 11.745 0 
27.2793 10 0 
27.2714 10.0098 0 
27.2635 10.0196 0 
27.7086 10.9775 0 
27.6431 10.8438 0 
28.0975 11.745 0 
27.8643 11.3186 0 
27.4661 10.5042 0 
27.2518 10.0341 0 
27.2401 10.0485 0 
28.0617 11.745 0 
26.7648 8.90909 0 
27.5255 10.71 0 
27.7353 11.1481 0 
27.2231 10.0695 0 
28.0133 11.745 0 
27.2061 10.0905 0 
27.8791 11.5318 0 
27.2986 10.3489 0 
27.1818 10.1203 0 
27.9651 11.745 0 
27.3758 10.6071 0 
27.0077 9.79545 0 
27.7174 11.3186 0 
27.1576 10.1502 0 
25 0 0 
27.5193 10.9775 0 
27.9003 11.745 0 
27.1236 10.1921 0 
26.25 8 0 
27.9939 12.0061 0 
25.65 6 0 
27.8359 11.745 0 
26.8136 9.59091 0 
27.0896 10.2339 0 
27.9626 12.0061 0 
27.2853 10.71 0 
25.2 4 0 
27.5713 11.3186 0 
27.9218 12.0061 0 
26.4998 8.90909 0 
27.167 10.5042 0 
27.6541 11.5318 0 
27.0427 10.2914 0 
27.7503 11.745 0 
26.9033 10 0 
27.8677 12.0061 0 
26.8882 10.0196 0 
26.8659 10.0485 0 
26.9958 10.3489 0 
27.2836 10.9775 0 
27.6652 11.745 0 
27.3609 11.1481 0 
27.7955 12.0061 0 
26.499 9.25 0 
[...]
POINT_DATA 1909
SCALARS phi float 1
LOOKUP_TABLE default
VECTORS Displacement float
0 0 0
0 0 0
0 -0.00600027 0
0 0 0
0 -0.00829402 0
0 0 0
0 -0.00718585 0
0 0 0
0 0 0
0 -0.0030205 0
0.0170229 -0.00519838 0
0 0 0
0 0.00394239 0
0.0330093 -0.00309269 0
0 0 0
0.0231087 -0.00508919 0
0 0.0128667 0
0 0 0
0.0438017 0.00731711 0
0.0298006 -0.00516175 0
0 0 0
0.0495517 0.0238662 0
0 0 0
0.0369593 -0.00554222 0
0 0 0
0.0700274 -0.00340597 0
0.04419 -0.00623575 0
0.082486 0.00085823 0
0 0 0
0.0751296 -0.00376124 0
0.0913998 0.00659275 0
0.0971449 0.0134434 0
0.0801458 -0.0042066 0
0.100603 0.0206639 0
0 0 0
0.0851376 -0.00491996 0
0.103338 0.0282587 0
0.0510324 -0.00719903 0
0.089992 -0.00573837 0
0.105926 0.0372759 0
0 0 0
0.0946161 -0.00672883 0
0.120878 0.00350989 0
0.0990106 -0.00782033 0
0.132399 0.0158312 0
0.0570553 -0.00837654 0
0 0 0
0.131085 -0.000492952 0
0.137369 0.0326374 0
0.103083 -0.00903659 0
0.138396 0.0566972 0
0.106832 -0.0103433 0
0 0 0
0.139716 -0.00468143 0
0.110213 -0.0117415 0
0.0619006 -0.0097228 0
0.147009 -0.00923913 0
0.113202 -0.0132238 0
0 0 0
0.17205 0.00176237 0
0.177032 0.00567958 0
0.115805 -0.0147701 0
0.17564 -0.00133024 0
0.181917 0.0106562 0
0.152928 -0.014145 0
0.185612 0.0177265 0
0.184526 0.00757926 0
0.189439 0.0277939 0
0.19024 0.0254285 0
0.178806 -0.00450388 0
0.189074 0.0123307 0
0.190373 0.0347355 0
0.191014 0.0234494 0
0.186874 0.00483378 0
0.191146 0.0323468 0
0.183686 -0.000866003 0
0.191776 0.0214557 0
0.190677 0.0426349 0
0.192168 0.0295713 0
0.19103 0.0427755 0
0.304468 0.0837305 0
0.192482 0.0196933 0
0.191433 0.042736 0
0.393981 0.114845 0
0.302378 0.082556 0
0.192058 0.0426258 0
0.391888 0.113651 0
0.398444 0.114405 0
0.38947 0.112205 0
0.192737 0.0423716 0
0.385321 0.110168 0
0.398582 0.113212 0
0.298574 0.0801996 0
0.396528 0.111995 0
0.193551 0.0265577 0
0.193199 0.0179076 0
0.193742 0.0416717 0
0.398391 0.112154 0
0.381027 0.107936 0
0.398234 0.111192 0
0.398916 0.11185 0
0.194782 0.0409212 0
0.392092 0.108726 0
0.117969 -0.0164045 0
0.374819 0.104615 0
0.39775 0.109991 0
0.293145 0.0759822 0
0.398675 0.110094 0
0.397103 0.108695 0
0.398226 0.110397 0
0.368718 0.101261 0
0.0652801 -0.0112096 0
0.1962 0.0393996 0
0.398164 0.109553 0
0.193857 0.0162662 0
0.189162 0.00228353 0
0 0 0
0.395674 0.106708 0
0.398082 0.108696 0
0.384442 0.103548 0
0.192167 0.00817042 0
0.398175 0.107498 0
0.195364 0.0233416 0
0.360553 0.0962936 0
0.397932 0.107367 0
0.19759 0.0379411 0
0.397327 0.10843 0
0.393659 0.104503 0
0.397768 0.105988 0
0.286007 0.0693661 0
0.397182 0.106613 0
0.352559 0.0914695 0
0.396615 0.103284 0
0.390194 0.10102 0
0.397461 0.103908 0
0.194557 0.0145416 0
0.396191 0.10628 0
0.199353 0.035622 0
0.37271 0.0953247 0
0.396109 0.105331 0
0.396931 0.103783 0
0.397106 0.101781 0
0.396024 0.104362 0
0.386024 0.0973952 0
0.181827 -0.00769454 0
0.342016 0.0847343 0
0.395888 0.102912 0
0.396312 0.0987417 0
0.200972 0.0334544 0
0.395746 0.101445 0
0.392403 0.096783 0
0.39457 0.103121 0
0.396497 0.0995373 0
0.276565 0.0602233 0
0.197595 0.0198944 0
0.195205 0.0129059 0
0.379598 0.0921078 0
0.395528 0.0993006 0
0.331784 0.078347 0
0.394409 0.101121 0
0.395183 0.0956683 0
0.35559 0.0836285 0
0.395304 0.0971634 0
0.394153 0.0981516 0
0.202907 0.0305808 0
0.392919 0.0998461 0
0.372515 0.0868364 0
0.395541 0.0934914 0
0.392827 0.0988224 0
0.39292 0.0913904 0
0.394973 0.0941407 0
0.392733 0.0978036 0
0.191272 -0.000216417 0
0.318444 0.0700023 0
0.383483 0.0874111 0
0.195953 0.0111496 0
0.392594 0.0963106 0
0.393757 0.0938955 0
0.394646 0.0911921 0
0.392455 0.0948314 0
0.38988 0.087098 0
0.204553 0.0278876 0
0.362213 0.0796719 0
0.264105 0.0488507 0
0.392255 0.0927142 0
0.390719 0.0953031 0
0.194983 0.00426787 0
0.305734 0.0622163 0
0.39404 0.0871952 0
0.392057 0.0906353 0
0.200161 0.0161623 0
0.392778 0.0853368 0
0.390542 0.0932792 0
0.393185 0.088066 0
0.331723 0.068504 0
0.196679 0.00946315 0
0.384558 0.081325 0
0.351365 0.0726661 0
0.391774 0.087745 0
0.390279 0.0903658 0
0.393272 0.0833489 0
0.206427 0.0247407 0
0.367342 0.0747348 0
0.38858 0.0908267 0
0.391492 0.0849421 0
0.388489 0.0898267 0
0.289746 0.0527375 0
0.389897 0.0862926 0
0.388397 0.0888392 0
0.378166 0.0755664 0
0.388264 0.087409 0
0.392326 0.0804549 0
0.391554 0.0783172 0
0.391106 0.0811529 0
0.388131 0.0860039 0
0.33617 0.0637209 0
0.19756 0.00760022 0
0.385471 0.0747635 0
0.207914 0.0217604 0
0.193294 -0.00270782 0
0.387941 0.0840098 0
0.389361 0.0807958 0
0.248641 0.0359523 0
0.189088 -0.00724809 0
0.390739 0.0775408 0
0.387754 0.0820646 0
0.275352 0.0441968 0
0.385884 0.0849817 0
0.3891 0.073413 0
0.367977 0.068103 0
0.184477 -0.0109916 0
0.300434 0.0505728 0
0.385713 0.0830724 0
0.387492 0.0793718 0
0.202909 0.0119977 0
0.32068 0.0550802 0
0.198464 0.00581794 0
0.390178 0.0727976 0
0.385463 0.0803622 0
0.387238 0.0767691 0
0.390184 0.0709098 0
0.340996 0.0585432 0
0.388649 0.073678 0
0.209544 0.0184482 0
0.384284 0.0671473 0
0.197623 0.000353581 0
0.356412 0.0606332 0
0.385105 0.0766097 0
0.386886 0.0732659 0
0.383233 0.0793711 0
0.258898 0.0345954 0
0.1574 -0.0193285 0
0.389534 0.0683269 0
0.383154 0.0784488 0
0.383075 0.0775408 0
0.369573 0.0612291 0
0.38296 0.0762343 0
0.386542 0.0699086 0
0.30043 0.0447089 0
0.382846 0.0749532 0
0.384605 0.0715702 0
0.199558 0.00377741 0
0.378061 0.0609222 0
0.195169 -0.00520613 0
0.382682 0.0731433 0
0.387737 0.0648015 0
0.119732 -0.0180728 0
0.210792 0.0152879 0
0.388039 0.0626373 0
0.339188 0.0513559 0
0.382519 0.0713781 0
0.232631 0.0227625 0
0.386086 0.0654988 0
0.246041 0.026662 0
0.383549 0.0592337 0
0.382288 0.0689362 0
0.264875 0.0315514 0
0.380002 0.0723531 0
0.383926 0.0650161 0
0.281471 0.0352506 0
0.379853 0.0706165 0
0.382058 0.0665698 0
0.385651 0.0613179 0
0.205631 0.00711273 0
0.367288 0.0531561 0
0.385778 0.0571868 0
0.302646 0.039305 0
0.20068 0.00180874 0
0.379635 0.0681716 0
0.381736 0.0633719 0
0.320598 0.0421676 0
0.212106 0.0116864 0
0.379324 0.0647947 0
0.385058 0.0559504 0
0.339643 0.0442439 0
0.381419 0.060296 0
0.385779 0.0540549 0
0.186891 -0.0142755 0
0.233695 0.0183838 0
0.383045 0.0567819 0
0.200093 -0.0037534 0
0.376815 0.0656981 0
0.196891 -0.00778521 0
0.380969 0.0504548 0
0.35417 0.0452691 0
0.37675 0.0648649 0
0.260322 0.0247164 0
0.378885 0.0602464 0
0.376685 0.0640443 0
0.380984 0.0562494 0
0.376592 0.062873 0
0.20202 -0.000496729 0
0.384413 0.050943 0
0.376498 0.0617225 0
0.366621 0.0449148 0
0.296338 0.0314537 0
0.376362 0.0601037 0
0.380559 0.0523939 0
0.376226 0.0585208 0
0.213138 0.00825495 0
0.378279 0.0543045 0
0.220801 0.0107503 0
0.374379 0.0438731 0
0.226084 0.0121833 0
0.376031 0.0563338 0
0.235114 0.0144641 0
0.333902 0.0359529 0
0.381991 0.0468401 0
0.382931 0.0447521 0
0.375836 0.0542093 0
0.244473 0.0165453 0
0.38001 0.0474708 0
0.372922 0.0575747 0
0.203344 -0.00274918 0
0.259514 0.0196188 0
0.379098 0.0415373 0
0.3728 0.0560004 0
0.208148 0.00120008 0
0.37556 0.05134 0
0.198481 -0.0103584 0
0.274113 0.0220966 0
0.193389 -0.0137605 0
0.377471 0.0468203 0
0.372625 0.0538084 0
0.375284 0.0485785 0
0.3795 0.0428546 0
0.29388 0.024874 0
0.362136 0.0361164 0
0.380631 0.0389801 0
0.372375 0.0507996 0
0.214146 0.0041785 0
0.311456 0.0267363 0
0.202415 -0.00814627 0
0.374907 0.0449485 0
0.22044 0.00586055 0
0.188923 -0.0176204 0
0.372023 0.0467651 0
0.331037 0.0278829 0
0.231016 0.00806725 0
0.369171 0.0499182 0
0.20488 -0.00542327 0
0.378865 0.0371437 0
0.380002 0.0353929 0
0.374538 0.0414999 0
0.369117 0.0491615 0
0.369063 0.048417 0
0.376466 0.037811 0
0.368985 0.0473703 0
0.251516 0.0117238 0
0.346325 0.0281861 0
0.375459 0.0321834 0
0.368908 0.0463436 0
0.371542 0.0415212 0
0.199925 -0.0130129 0
0 0 0
0.368797 0.0449148 0
0.374058 0.037113 0
0.368686 0.0435204 0
0.378204 0.0319363 0
0.214979 0.000294674 0
0.121031 -0.0198481 0
0.359694 0.0271811 0
0.283927 0.0162543 0
0.21644 0.000636549 0
0.368531 0.0416097 0
0.217972 0.000963356 0
0.220474 0.00146582 0
0.368377 0.0397595 0
0.373609 0.0330129 0
0.223646 0.00210573 0
0.206328 -0.00806282 0
0.370912 0.0349687 0
0.368018 0.0256979 0
0.229534 0.0032548 0
0.368166 0.037278 0
0.322277 0.019381 0
0.236535 0.00450548 0
0.364649 0.0408359 0
0.210433 -0.00589215 0
0.375408 0.0275464 0
0.376701 0.025777 0
0.36796 0.0349008 0
0.36456 0.0394216 0
0.248313 0.00640358 0
0.373084 0.0279917 0
0.204633 -0.0128675 0
0.364433 0.037501 0
0.372928 0.0230081 0
0.201222 -0.0156642 0
0.26088 0.00802482 0
0.36769 0.0317971 0
0.190681 -0.0209545 0
0.364258 0.0349139 0
0.215663 -0.00436812 0
0.370147 0.0271561 0
0.279125 0.00988436 0
0.367434 0.0288631 0
0.217052 -0.00423831 0
0.353496 0.018586 0
0.372654 0.0233827 0
0.160371 -0.0247331 0
0.207936 -0.011211 0
0.37437 0.0202152 0
0.364018 0.0314975 0
0.219782 -0.00397491 0
0.296437 0.0109796 0
0.367113 0.0251458 0
0.226252 -0.00321794 0
0.360209 0.0324349 0
0.196632 -0.0203421 0
0.360173 0.0317704 0
0.317054 0.0113986 0
0.363702 0.0271139 0
0.360136 0.0311189 0
0.360088 0.0302242 0
0.20237 -0.0184084 0
0.372113 0.0178835 0
0.36004 0.0293498 0
0.373495 0.0164661 0
0.366823 0.0216783 0
0.240861 -0.00158237 0
0.359975 0.0281543 0
0.333961 0.011066 0
0.369318 0.0182673 0
0.359911 0.0269918 0
0.368664 0.0138256 0
0.216259 -0.00881659 0
0.216621 -0.00885036 0
0.359825 0.0254203 0
0.363307 0.0216804 0
0.209377 -0.0143344 0
0.216981 -0.00888842 0
0.2176 -0.00892053 0
0.359742 0.0239028 0
0.366472 0.0174011 0
0.268231 0.000845508 0
0.218282 -0.00894372 0
0.349529 0.00944568 0
0.37148 0.0128506 0
0.219648 -0.00888512 0
0.206726 -0.0179947 0
0.359633 0.0218852 0
0.192071 -0.0243069 0
0.22137 -0.00876082 0
0.35953 0.0199523 0
0.224784 -0.00841318 0
0.212697 -0.014092 0
0.0669489 -0.0128153 0
0.36616 0.0134068 0
0.203364 -0.0211401 0
0.359594 0.00751374 0
0.355295 0.0230417 0
0.362846 0.0151707 0
0.229314 -0.00790527 0
0.359397 0.0174334 0
0.306426 0.00253191 0
0.355243 0.0218202 0
0.121912 -0.0216185 0
0.237518 -0.00704002 0
0.355172 0.0202154 0
0.368443 0.00828218 0
0.359276 0.0150353 0
0.369963 0.00678629 0
0.355076 0.0181024 0
0.210854 -0.0180543 0
0.247389 -0.00620013 0
0.216784 -0.0139982 0
0.365815 0.00851744 0
0.365608 0.0043405 0
0.21731 -0.0141432 0
0.35912 0.0119695 0
0.354951 0.0153448 0
0.218137 -0.0143574 0
0.262911 -0.00525291 0
0.362316 0.00748935 0
0.341883 0.000714806 0
0.219671 -0.0146263 0
0.204239 -0.0239668 0
0.35897 0.0090409 0
0.279014 -0.00493552 0
0.365422 0.00384334 0
0.354791 0.0118029 0
0.367423 0.00111524 0
0.193182 -0.0276736 0
0.350229 0.0144672 0
0.223246 -0.0148451 0
0.350217 0.0139004 0
0.350207 0.0133438 0
0.350194 0.0126036 0
0.358783 0.00533417 0
0.198827 -0.0269637 0
0.208553 -0.0236662 0
0.299754 -0.00537365 0
0.350183 0.0118778 0
0.212087 -0.0217473 0
0.354591 0.0073314 0
0.350168 0.010905 0
0.23239 -0.0148162 0
0.350153 0.00995347 0
0.217277 -0.0189787 0
0.217471 -0.0190695 0
0.217677 -0.0191575 0
0.364782 -0.00188501 0
0.366352 -0.00314618 0
0.350132 0.00868007 0
0.358572 0.00174158 0
0.317993 -0.00662196 0
0.21797 -0.019293 0
0.218269 -0.0194285 0
0.350111 0.00743712 0
0.20495 -0.026781 0
0.360423 -0.00541725 0
0.361612 -0.00171074 0
0.218735 -0.0196157 0
0.350081 0.00578702 0
0.219192 -0.0198106 0
0.354343 0.00173238 0
0.252897 -0.014577 0
0.219964 -0.0200556 0
0.350049 0.00417634 0
0.336031 -0.00927427 0
0.215033 -0.02334 0
0.358276 -0.00278436 0
0.220823 -0.0202937 0
0 0 0
0.363997 -0.00735606 0
0.350005 0.00205723 0
0.222604 -0.0205108 0
0.193952 -0.0310395 0
0.344685 0.00509652 0
0.161819 -0.0303162 0
0.349955 -1.86269e-05 0
0.213186 -0.0261001 0
0.224981 -0.020658 0
0.34467 0.00400022 0
0.34841 -0.012098 0
0.122311 -0.0235281 0
0.357936 -0.00718399 0
0.344648 0.00259775 0
0.205541 -0.0297191 0
0.287553 -0.0150615 0
0.353984 -0.00527514 0
0.229794 -0.0207059 0
0.349874 -0.00272566 0
0.218095 -0.0245645 0
0.344617 0.000777497 0
0.218339 -0.0247811 0
0.218767 -0.0250839 0
0.236352 -0.0206794 0
0.362051 -0.0140003 0
0.34978 -0.00538684 0
0.360456 -0.0126672 0
0.344575 -0.00159856 0
0.209922 -0.0300113 0
0.219442 -0.0255192 0
0.356238 -0.0162364 0
0.357434 -0.0126145 0
0.247664 -0.0207693 0
0.344516 -0.00470241 0
0.349632 -0.0088184 0
0.220478 -0.0261538 0
0.326096 -0.0186188 0
0.205957 -0.0326478 0
0.200058 -0.033582 0
0.213954 -0.0304126 0
0.353387 -0.0139268 0
0.260963 -0.0213035 0
0.194455 -0.0344124 0
0.33901 -0.00378795 0
0.222363 -0.0270501 0
0.34946 -0.0121828 0
0.339012 -0.00433661 0
0.344422 -0.0087409 0
0.35883 -0.020211 0
0.339014 -0.00487912 0
0.356861 -0.0178693 0
0.339017 -0.00557176 0
0.339019 -0.00625688 0
0.339022 -0.00714977 0
0.218662 -0.0300167 0
0.279749 -0.0227661 0
0.218801 -0.0301254 0
0.218938 -0.0302349 0
0.339022 -0.00803352 0
0.219128 -0.0303991 0
0.227111 -0.0282527 0
0.349203 -0.016441 0
0.219316 -0.0305644 0
0.339019 -0.00919835 0
0.21958 -0.0308071 0
0.344257 -0.0139456 0
0.339014 -0.0103516 0
0.219844 -0.0310522 0
0.220211 -0.031405 0
0.206227 -0.0357344 0
0.297922 -0.0251967 0
0.338999 -0.0118745 0
0.357663 -0.0252677 0
0.355959 -0.0242164 0
0.220578 -0.0317615 0
0.348904 -0.0205933 0
0.338981 -0.0133819 0
0.349299 -0.0267625 0
0.216646 -0.0338419 0
0.221099 -0.0322606 0
0.352364 -0.0243191 0
0.239815 -0.0299867 0
0.338947 -0.0153647 0
0.214485 -0.0353986 0
0.221609 -0.0327695 0
0.194654 -0.0377775 0
0.343963 -0.0205316 0
0.122274 -0.0253749 0
0.338906 -0.017324 0
0.317689 -0.0292589 0
0.210603 -0.0371304 0
0.222468 -0.0334311 0
0.348464 -0.0257279 0
0.332418 -0.0139597 0
0.35487 -0.0302883 0
0.33884 -0.0198769 0
0.332423 -0.015106 0
0.223481 -0.0340821 0
0.206315 -0.0388105 0
0.332425 -0.0165249 0
0.219158 -0.0361977 0
0.219366 -0.036419 0
0.338761 -0.0223902 0
0.332531 -0.0334729 0
0.26675 -0.0330499 0
0.332422 -0.0183241 0
0.219679 -0.0367481 0
0.22578 -0.0348186 0
0.347957 -0.0307145 0
0.220135 -0.0372312 0
0.20037 -0.0402069 0
0.343446 -0.0286677 0
0.33241 -0.0206386 0
0.338636 -0.0256158 0
0.229003 -0.0355332 0
0.220781 -0.0379311 0
0.161749 -0.0360501 0
0.352124 -0.0374528 0
0.214598 -0.0403346 0
0.332378 -0.0236311 0
0.350711 -0.0364804 0
0.194601 -0.0411488 0
0.338489 -0.0287794 0
0.343149 -0.0390352 0
0.221659 -0.03894 0
0.235529 -0.0365077 0
0.206223 -0.042074 0
0.347233 -0.0367321 0
0.332309 -0.0274865 0
0 0 0
0.338266 -0.0327661 0
0.30481 -0.0390092 0
0.325765 -0.023951 0
0.222904 -0.0403712 0
0.244432 -0.0377689 0
0.325769 -0.0245622 0
0.325772 -0.025169 0
0.0666948 -0.0144939 0
0.219057 -0.0423478 0
0.325775 -0.0259098 0
0.342567 -0.0384658 0
0.219169 -0.0424663 0
0.21928 -0.0425851 0
0.325776 -0.0266453 0
0.347437 -0.0439888 0
0.219434 -0.0427614 0
0.332171 -0.0324013 0
0.338004 -0.0366609 0
0.325777 -0.0275665 0
0.219588 -0.0429386 0
0.346417 -0.0425367 0
0.219804 -0.0431975 0
0.325776 -0.0284805 0
0.220017 -0.0434584 0
0.258641 -0.040121 0
0.325772 -0.0296458 0
0.225206 -0.0424101 0
0.220312 -0.0438349 0
0.21035 -0.0450825 0
0.121734 -0.0273988 0
0.325766 -0.0308009 0
0.205942 -0.0453224 0
0.220602 -0.0442155 0
0.194273 -0.0445109 0
0.325753 -0.0322877 0
0.220996 -0.0447566 0
0.33762 -0.0414717 0
0.214294 -0.0459529 0
0.216583 -0.0457368 0
0.325736 -0.0337591 0
0.221381 -0.0453049 0
0.331913 -0.0385706 0
0.274505 -0.0435992 0
0.325706 -0.0356563 0
0.346746 -0.0499852 0
0.221892 -0.0460682 0
0.345178 -0.0493752 0
0.199791 -0.0468531 0
0.231088 -0.0455914 0
0.333546 -0.0496265 0
0.325669 -0.0375301 0
0.22238 -0.046844 0
0.337177 -0.0461488 0
0.341103 -0.0499178 0
0.32561 -0.0399339 0
0.223033 -0.0478859 0
0.293732 -0.0491531 0
0.205441 -0.0487823 0
0.317912 -0.0355118 0
0.331456 -0.0461651 0
0.218417 -0.0492254 0
0.325537 -0.0423029 0
0.317918 -0.0368249 0
0.218583 -0.0494597 0
0.223666 -0.0489429 0
0.218831 -0.0498081 0
0.193706 -0.0478727 0
0.31792 -0.0383766 0
0.33654 -0.0517919 0
0.343707 -0.0558777 0
0.219188 -0.0503189 0
0.325425 -0.0453109 0
0.317917 -0.0402608 0
0.224565 -0.0503633 0
0.247274 -0.0509994 0
0.219687 -0.0510571 0
0.213503 -0.0514953 0
0.310154 -0.0552909 0
0.317902 -0.0425952 0
0.325292 -0.0482671 0
0.220364 -0.0521087 0
0.225544 -0.0518316 0
0.335812 -0.057261 0
0.317867 -0.0455224 0
0.204745 -0.05222 0
0.330675 -0.0552975 0
0.325091 -0.0519669 0
0.221269 -0.0535876 0
0.120753 -0.029273 0
0.160176 -0.0418883 0
0.339346 -0.0631214 0
0.228184 -0.0536672 0
0.20887 -0.0538883 0
0.317795 -0.049207 0
0.338803 -0.0629518 0
0.324059 -0.0629999 0
0.192892 -0.0512163 0
0.324856 -0.0555903 0
0.222443 -0.0556538 0
0.334788 -0.0637042 0
0.217181 -0.0559633 0
0.309891 -0.0469158 0
0.217265 -0.0560848 0
0.217349 -0.0562065 0
0.232211 -0.055638 0
0.198361 -0.0535112 0
0.309895 -0.047624 0
0.278485 -0.0598698 0
0.217468 -0.0563863 0
0.317659 -0.0538293 0
0.217587 -0.0565668 0
0.309897 -0.0483284 0
0.217755 -0.0568293 0
0.309899 -0.0491477 0
0.217921 -0.0570932 0
0.324513 -0.0600457 0
0.3099 -0.0499623 0
0.218155 -0.0574718 0
0.309899 -0.0509361 0
0.218385 -0.0578532 0
0.203771 -0.0558862 0
0.309897 -0.0519037 0
0.21212 -0.0576565 0
0.331251 -0.0695555 0
0.218702 -0.0583933 0
0.329399 -0.0660154 0
0.30989 -0.0530872 0
0.223834 -0.058552 0
0.219014 -0.0589392 0
0.240421 -0.05854 0
0.317414 -0.0595711 0
0.309881 -0.0542621 0
0.324115 -0.0643928 0
0.333639 -0.0699233 0
0.214181 -0.0588467 0
0 0 0
0.219428 -0.059704 0
0.309865 -0.0557223 0
0.191849 -0.0545482 0
0.219833 -0.060481 0
0.309845 -0.0571705 0
0.309812 -0.0589858 0
0.220354 -0.0615579 0
0.251399 -0.0624516 0
0.323553 -0.069636 0
0.309772 -0.0607835 0
0.316989 -0.066597 0
0.220843 -0.0626635 0
0.226138 -0.0626903 0
0.332507 -0.0769464 0
0.2026 -0.0595199 0
0.309709 -0.0630407 0
0.331972 -0.0771114 0
0.311206 -0.0732259 0
0.119239 -0.0313461 0
0.221436 -0.0641769 0
0.215179 -0.0633505 0
0.309635 -0.0652715 0
0.215319 -0.0635939 0
0.322913 -0.0747288 0
0.215525 -0.0639553 0
0.300504 -0.0598694 0
0.266837 -0.068675 0
0.327396 -0.0782614 0
0.215819 -0.0644843 0
0.221928 -0.0657327 0
0.309523 -0.0680599 0
0.300509 -0.0614097 0
0.210217 -0.0636979 0
0.190586 -0.0578471 0
0.216224 -0.0652477 0
0.300508 -0.0631501 0
0.196113 -0.060159 0
0.316281 -0.075033 0
0.205865 -0.0634874 0
0.309392 -0.0708087 0
0.216764 -0.0663357 0
0.222512 -0.0677627 0
0.300499 -0.0651698 0
0.329956 -0.0837745 0
0.232984 -0.0693724 0
0.322034 -0.0807338 0
0.300476 -0.067569 0
0.217451 -0.0678673 0
0.201092 -0.0633842 0
0.282513 -0.076351 0
0.3092 -0.0742115 0
0.223013 -0.0698187 0
0.157131 -0.0477272 0
0.30043 -0.0704702 0
0.308977 -0.0775562 0
0.218266 -0.0699977 0
0.0643985 -0.0161394 0
0.321049 -0.0865421 0
0.300345 -0.0740164 0
0.189108 -0.0611191 0
0.223694 -0.072507 0
0.315138 -0.0849328 0
0.308658 -0.0816396 0
0.322552 -0.0901274 0
0.21255 -0.0705163 0
0.212615 -0.0706404 0
0.21268 -0.0707648 0
0.212775 -0.0709484 0
0.297808 -0.0863554 0
0.212869 -0.0711325 0
0.219186 -0.0729132 0
0.324316 -0.0917118 0
0.213003 -0.0714003 0
0.300198 -0.0783662 0
0.213135 -0.0716693 0
0.213321 -0.0720543 0
0.207579 -0.0702418 0
0.199391 -0.067195 0
0.290836 -0.0727216 0
0.224563 -0.0752774 0
0.213503 -0.0724418 0
0.117311 -0.0331594 0
0.308292 -0.0856388 0
0.290839 -0.0735598 0
0.252093 -0.0805702 0
0.213752 -0.0729878 0
0.290841 -0.074395 0
0.319664 -0.0931935 0
0.213993 -0.0735384 0
0.290841 -0.0753238 0
0.290839 -0.0762492 0
0.214315 -0.0743023 0
0.299947 -0.0836844 0
0.290834 -0.0773046 0
0.209035 -0.0728127 0
0.214621 -0.0750743 0
0.290827 -0.0783556 0
0.220211 -0.0768346 0
0.30778 -0.0904379 0
0.193071 -0.066762 0
0.290815 -0.0795834 0
0.187438 -0.0643393 0
0.307998 -0.0953806 0
0.227555 -0.0789035 0
0.215016 -0.0761291 0
0.290799 -0.0808052 0
0.313352 -0.0962548 0
0.215389 -0.0771955 0
0.290776 -0.0822615 0
0.318122 -0.0996646 0
0 0 0
0.290748 -0.0837093 0
0.299532 -0.090126 0
0.307199 -0.0951191 0
0.215834 -0.0786364 0
0.290706 -0.0854604 0
0.197299 -0.071219 0
0.232467 -0.0831136 0
0.290656 -0.0871992 0
0.216255 -0.0800977 0
0.201107 -0.0737007 0
0.22117 -0.0820954 0
0.290584 -0.0893197 0
0.209028 -0.0781388 0
0.209149 -0.0783865 0
0.209323 -0.0787536 0
0.204428 -0.0765843 0
0.306406 -0.100629 0
0.216741 -0.0820483 0
0.312945 -0.105152 0
0.209571 -0.0792895 0
0.2905 -0.091422 0
0.281929 -0.0969116 0
0.185564 -0.0675101 0