# vtk DataFile Version 3.0
File generated from DClib
ASCII

DATASET UNSTRUCTURED_GRID
POINTS 1909 float
50 0 0 
48.75 0 0 
50 1.66667 0 
47.5 0 0 
50 3.33333 0 
46.25 0 0 
50 5 0 
45 0 0 
43.75 0 0 
50 6.66667 0 
43 2 0 
42.5 0 0 
50 8.33333 0 
43 4.66667 0 
41.25 0 0 
41.075 2 0 
50 10 0 
40 0 0 
43 7.33333 0 
39.15 2 0 
38.75 0 0 
43 10 0 
37.5 0 0 
37.225 2 0 
36.25 0 0 
36 4 0 
35.3 2 0 
36 5 0 
35 0 0 
35.325 4 0 
36 6 0 
36 7 0 
34.65 4 0 
36 8 0 
33.75 0 0 
33.975 4 0 
36 9 0 
33.375 2 0 
33.3 4 0 
36 10 0 
32.5 0 0 
32.625 4 0 
33 6 0 
31.95 4 0 
33 7.45455 0 
31.45 2 0 
31.25 0 0 
31.95 6 0 
33 8.79545 0 
31.275 4 0 
33 10 0 
30.6 4 0 
30 0 0 
30.9 6 0 
29.925 4 0 
29.525 2 0 
29.85 6 0 
29.25 4 0 
28.75 0 0 
30 8 0 
30 8.45455 0 
28.575 4 0 
29.625 8 0 
30 8.90909 0 
28.8 6 0 
30 9.25 0 
29.782 8.90909 0 
30 9.59091 0 
29.9487 9.59091 0 
29.25 8 0 
29.7462 9.25 0 
30 9.79545 0 
29.897 9.59091 0 
29.564 8.90909 0 
29.9547 9.79545 0 
29.3462 8.45455 0 
29.84 9.59091 0 
30 10 0 
29.8975 9.79545 0 
29.9882 10 0 
29.9902 10.0098 0 
29.7827 9.59091 0 
29.9765 10 0 
29.9804 10.0196 0 
29.9667 10.0098 0 
29.9591 10 0 
29.9686 10.0196 0 
29.9659 10.0341 0 
29.9569 10.0196 0 
29.9418 10 0 
29.9395 10.0196 0 
29.9515 10.0485 0 
29.932 10.0098 0 
29.9424 10.0341 0 
29.8241 9.79545 0 
29.7181 9.59091 0 
29.9166 10 0 
29.9397 10.0485 0 
29.9222 10.0196 0 
29.9279 10.0485 0 
29.9305 10.0695 0 
29.8914 10 0 
29.9077 10.0341 0 
27.9 4 0 
29.897 10.0196 0 
29.9106 10.0485 0 
29.8817 10.0098 0 
29.907 10.0695 0 
29.8933 10.0485 0 
29.9095 10.0905 0 
29.8719 10.0196 0 
27.6 2 0 
29.8556 10 0 
29.8978 10.0905 0 
29.6531 9.59091 0 
29.3437 8.90909 0 
27.5 0 0 
29.8681 10.0485 0 
29.886 10.0905 0 
29.8574 10.0341 0 
29.4839 9.25 0 
29.8723 10.0695 0 
29.7289 9.79545 0 
29.836 10.0196 0 
29.8687 10.0905 0 
29.8197 10 0 
29.8797 10.1203 0 
29.843 10.0485 0 
29.8513 10.0905 0 
29.81 10.0098 0 
29.8561 10.1203 0 
29.8002 10.0196 0 
29.8221 10.0695 0 
29.8072 10.0485 0 
29.8262 10.0905 0 
29.5782 9.59091 0 
29.8498 10.1502 0 
29.7695 10 0 
29.7858 10.0341 0 
29.838 10.1502 0 
29.8215 10.1203 0 
29.8011 10.0905 0 
29.8262 10.1502 0 
29.7714 10.0485 0 
28.875 8 0 
29.75 10.0196 0 
29.8089 10.1502 0 
29.7654 10.0905 0 
29.7193 10 0 
29.7916 10.1502 0 
29.7505 10.0695 0 
29.8079 10.1921 0 
29.7713 10.1203 0 
29.7096 10.0098 0 
29.6047 9.79545 0 
29.503 9.59091 0 
29.7213 10.0485 0 
29.7665 10.1502 0 
29.6999 10.0196 0 
29.7844 10.1921 0 
29.7296 10.0905 0 
29.6856 10.0341 0 
29.7414 10.1502 0 
29.7497 10.1921 0 
29.6503 10 0 
29.7661 10.2339 0 
29.6712 10.0485 0 
29.6999 10.1203 0 
29.7543 10.2339 0 
29.6796 10.0905 0 
29.7057 10.1502 0 
29.7425 10.2339 0 
29.1235 8.90909 0 
29.6309 10.0196 0 
29.6504 10.0695 0 
29.4146 9.59091 0 
29.7252 10.2339 0 
29.6996 10.1921 0 
29.6701 10.1502 0 
29.7079 10.2339 0 
29.6296 10.0905 0 
29.5813 10 0 
29.6023 10.0485 0 
29.5716 10.0098 0 
29.6828 10.2339 0 
29.7086 10.2914 0 
29.2101 9.25 0 
29.562 10.0196 0 
29.6201 10.1502 0 
29.6578 10.2339 0 
29.4428 9.79545 0 
29.5999 10.1203 0 
29.6849 10.2914 0 
29.6283 10.1921 0 
29.5477 10.0341 0 
29.3259 9.59091 0 
29.5608 10.0905 0 
29.5335 10.0485 0 
29.6221 10.2339 0 
29.6503 10.2914 0 
29.5702 10.1502 0 
29.4881 10 0 
29.5128 10.0695 0 
29.6511 10.3489 0 
29.5866 10.2339 0 
29.6392 10.3489 0 
29.4689 10.0196 0 
29.6002 10.2914 0 
29.6273 10.3489 0 
29.4921 10.0905 0 
29.61 10.3489 0 
29.5286 10.1921 0 
29.5016 10.1502 0 
29.5368 10.2339 0 
29.5926 10.3489 0 
29.4405 10.0485 0 
29.2199 9.59091 0 
29.4626 10.1203 0 
29.3949 10 0 
28.9 8.90909 0 
29.5676 10.3489 0 
29.5291 10.2914 0 
29.3853 10.0098 0 
28.6923 8.45455 0 
29.487 10.2339 0 
29.5426 10.3489 0 
29.3758 10.0196 0 
29.5734 10.4266 0 
29.4331 10.1502 0 
29.3993 10.0905 0 
28.5 8 0 
29.3617 10.0341 0 
29.5496 10.4266 0 
29.5071 10.3489 0 
29.2327 9.79545 0 
29.3475 10.0485 0 
29.1136 9.59091 0 
29.4187 10.2339 0 
29.5148 10.4266 0 
29.4716 10.3489 0 
29.3918 10.1921 0 
29.3271 10.0695 0 
29.4298 10.2914 0 
29.2714 10 0 
29.3406 10.1502 0 
28.9208 9.25 0 
29.3066 10.0905 0 
29.4648 10.4266 0 
29.422 10.3489 0 
29.4958 10.5042 0 
29.2524 10.0196 0 
27.75 6 0 
29.3504 10.2339 0 
29.4837 10.5042 0 
29.4718 10.5042 0 
29.2774 10.1203 0 
29.4543 10.5042 0 
29.3724 10.3489 0 
29.2244 10.0485 0 
29.4369 10.5042 0 
29.3938 10.4266 0 
28.9853 9.59091 0 
29.2481 10.1502 0 
28.6766 8.90909 0 
29.4119 10.5042 0 
29.2934 10.2914 0 
27.225 4 0 
29.148 10 0 
29.2582 10.2339 0 
29.1837 10.0905 0 
29.3869 10.5042 0 
29.1385 10.0098 0 
29.3044 10.3489 0 
29.1291 10.0196 0 
29.2072 10.1921 0 
29.3514 10.5042 0 
29.1152 10.0341 0 
29.3929 10.6071 0 
29.2949 10.4266 0 
29.1013 10.0485 0 
29.3686 10.6071 0 
29.316 10.5042 0 
29.2364 10.3489 0 
28.9623 9.79545 0 
29.1257 10.1502 0 
29.1662 10.2339 0 
29.0811 10.0695 0 
28.8566 9.59091 0 
29.3336 10.6071 0 
29.2666 10.5042 0 
29.0609 10.0905 0 
28.9875 10 0 
29.2835 10.6071 0 
29.1448 10.3489 0 
29.0321 10.1203 0 
29.2173 10.5042 0 
29.1098 10.2914 0 
28.125 8 0 
28.9688 10.0196 0 
29.1594 10.4266 0 
28.611 9.25 0 
29.29 10.71 0 
28.4486 8.90909 0 
29.0443 10.2339 0 
29.0033 10.1502 0 
29.2777 10.71 0 
28.9413 10.0485 0 
29.2128 10.6071 0 
29.2655 10.71 0 
29.1497 10.5042 0 
29.2478 10.71 0 
28.7003 9.59091 0 
29.0533 10.3489 0 
29.2303 10.71 0 
28.9629 10.1921 0 
28.9013 10.0905 0 
29.2051 10.71 0 
29.0822 10.5042 0 
29.1801 10.71 0 
28.827 10 0 
29.1144 10.6071 0 
28.8177 10.0098 0 
28.9225 10.2339 0 
28.8085 10.0196 0 
29.1447 10.71 0 
28.7949 10.0341 0 
28.8443 10.1502 0 
28.977 10.4266 0 
28.9322 10.3489 0 
29.1094 10.71 0 
28.7813 10.0485 0 
28.9912 10.5042 0 
29.1562 10.8438 0 
28.5436 9.59091 0 
28.7615 10.0695 0 
28.8669 10.2914 0 
29.1313 10.8438 0 
28.6184 9.79545 0 
29.0602 10.71 0 
28.2207 8.90909 0 
28.7418 10.0905 0 
28.0378 8.45455 0 
28.9798 10.6071 0 
29.0958 10.8438 0 
29.0112 10.71 0 
28.9005 10.5042 0 
28.7136 10.1203 0 
28.7644 10.2339 0 
28.8113 10.3489 0 
29.0454 10.8438 0 
28.6223 10 0 
28.6854 10.1502 0 
28.2746 9.25 0 
28.9441 10.71 0 
28.6042 10.0196 0 
27.75 8 0 
28.9747 10.8438 0 
28.6459 10.1921 0 
28.5773 10.0485 0 
29.0225 10.9775 0 
28.3532 9.59091 0 
28.7804 10.5042 0 
28.736 10.4266 0 
28.8772 10.71 0 
29.0097 10.9775 0 
28.9971 10.9775 0 
28.799 10.6071 0 
28.9791 10.9775 0 
28.5384 10.0905 0 
28.6064 10.2339 0 
28.6543 10.3489 0 
28.9611 10.9775 0 
28.8769 10.8438 0 
27.9867 8.90909 0 
26.25 0 0 
28.9358 10.9775 0 
28.7871 10.71 0 
28.9106 10.9775 0 
28.6607 10.5042 0 
28.4177 10 0 
26.55 4 0 
28.552 10.2914 0 
28.483 10.1502 0 
28.4087 10.0098 0 
28.8751 10.9775 0 
28.3998 10.0196 0 
28.3866 10.0341 0 
28.8399 10.9775 0 
28.6974 10.71 0 
28.3735 10.0485 0 
28.1625 9.59091 0 
28.7436 10.8438 0 
28.4976 10.3489 0 
28.3543 10.0695 0 
28.791 10.9775 0 
28.4052 10.2339 0 
28.3352 10.0905 0 
28.8519 11.1481 0 
28.1869 9.79545 0 
28.5607 10.6071 0 
28.5053 10.5042 0 
28.7423 10.9775 0 
28.8258 11.1481 0 
28.308 10.1203 0 
28.5787 10.71 0 
27.904 9.25 0 
28.7893 11.1481 0 
28.424 10.4266 0 
27.7528 8.90909 0 
28.2807 10.1502 0 
28.6758 10.9775 0 
27.375 8 0 
28.7383 11.1481 0 
28.1619 10 0 
28.5649 10.8438 0 
28.2425 10.1921 0 
28.6096 10.9775 0 
28.1444 10.0196 0 
28.298 10.3489 0 
28.4605 10.71 0 
26.7 6 0 
27.9315 9.59091 0 
28.3503 10.5042 0 
28.6676 11.1481 0 
28.1187 10.0485 0 
28.2042 10.2339 0 
28.5207 10.9775 0 
28.0813 10.0905 0 
28.6814 11.3186 0 
27.3818 8.45455 0 
28.6679 11.3186 0 
28.1516 10.2914 0 
28.5703 11.1481 0 
28.6544 11.3186 0 
28.6358 11.3186 0 
27.5109 8.90909 0 
28.3072 10.71 0 
28.6173 11.3186 0 
28.2524 10.6071 0 
28.4322 10.9775 0 
28.028 10.1502 0 
28.5915 11.3186 0 
28.0989 10.3489 0 
28.33 10.8438 0 
28.5658 11.3186 0 
28.153 10.5042 0 
27.9061 10 0 
27.8975 10.0098 0 
28.5303 11.3186 0 
28.4384 11.1481 0 
27.7002 9.59091 0 
27.889 10.0196 0 
27.8765 10.0341 0 
28.4949 11.3186 0 
28.3154 10.9775 0 
27.9532 10.2339 0 
27.8639 10.0485 0 
28.0276 10.4266 0 
28.1544 10.71 0 
27.8457 10.0695 0 
27.4909 9.25 0 
28.4463 11.3186 0 
27 8 0 
27.8275 10.0905 0 
28.3979 11.3186 0 
27.8015 10.1203 0 
27.6542 9.79545 0 
25.675 2 0 
28.1991 10.9775 0 
27.2691 8.90909 0 
27.9563 10.5042 0 
28.4682 11.5318 0 
28.2625 11.1481 0 
27.7755 10.1502 0 
28.3322 11.3186 0 
27.8502 10.3489 0 
28.4401 11.5318 0 
25.875 4 0 
27.7391 10.1921 0 
28.4019 11.5318 0 
28.0268 10.8438 0 
28.2668 11.3186 0 
27.9602 10.71 0 
28.3498 11.5318 0 
27.4223 9.59091 0 
27.7026 10.2339 0 
27.5927 10 0 
28.0486 10.9775 0 
27.8616 10.6071 0 
27.5762 10.0196 0 
28.1794 11.3186 0 
28.2786 11.5318 0 
27.5519 10.0485 0 
27.6524 10.2914 0 
28.0319 11.1481 0 
27.7108 10.5042 0 
27.5167 10.0905 0 
27.0169 8.90909 0 
28.0924 11.3186 0 
27.6021 10.3489 0 
27.8988 10.9775 0 
28.1818 11.5318 0 
27.7667 10.71 0 
26.625 8 0 
28.255 11.745 0 
27.4664 10.1502 0 
28.2402 11.745 0 
28.2256 11.745 0 
28.2059 11.745 0 
27.978 11.3186 0 
26.7234 8.45455 0 
27.0259 9.25 0 
27.5342 10.4266 0 
28.1863 11.745 0 
27.1442 9.59091 0 
28.0516 11.5318 0 
28.1598 11.745 0 
27.3959 10.2339 0 
28.1334 11.745 0 
27.2793 10 0 
27.2714 10.0098 0 
27.2635 10.0196 0 
27.7086 10.9775 0 
27.6431 10.8438 0 
28.0975 11.745 0 
27.8643 11.3186 0 
27.4661 10.5042 0 
27.2518 10.0341 0 
27.2401 10.0485 0 
28.0617 11.745 0 
26.7648 8.90909 0 
27.5255 10.71 0 
27.7353 11.1481 0 
27.2231 10.0695 0 
28.0133 11.745 0 
27.2061 10.0905 0 
27.8791 11.5318 0 
27.2986 10.3489 0 
27.1818 10.1203 0 
27.9651 11.745 0 
27.3758 10.6071 0 
27.0077 9.79545 0 
27.7174 11.3186 0 
27.1576 10.1502 0 
25 0 0 
27.5193 10.9775 0 
27.9003 11.745 0 
27.1236 10.1921 0 
26.25 8 0 
27.9939 12.0061 0 
25.65 6 0 
27.8359 11.745 0 
26.8136 9.59091 0 
27.0896 10.2339 0 
27.9626 12.0061 0 
27.2853 10.71 0 
25.2 4 0 
27.5713 11.3186 0 
27.9218 12.0061 0 
26.4998 8.90909 0 
27.167 10.5042 0 
27.6541 11.5318 0 
27.0427 10.2914 0 
27.7503 11.745 0 
26.9033 10 0 
27.8677 12.0061 0 
26.8882 10.0196 0 
26.8659 10.0485 0 
26.9958 10.3489 0 
27.2836 10.9775 0 
27.6652 11.745 0 
27.3609 11.1481 0 
27.7955 12.0061 0 
26.499 9.25 0 
[...]
POINT_DATA 1909
SCALARS phi float 1
LOOKUP_TABLE default
VECTORS Displacement float
0 0 0
0 0 0
0 -0.00262327 0
0 0 0
0 -0.00362834 0
0 0 0
0 -0.00313328 0
0 0 0
0 0 0
0 -0.0012767 0
0.00763448 -0.0022877 0
0 0 0
0 0.00182215 0
0.0146897 -0.00127604 0
0 0 0
0.0103239 -0.00224453 0
0 0.00570471 0
0 0 0
0.0194467 0.00342953 0
0.0132775 -0.00228009 0
0 0 0
0.0219515 0.0112957 0
0 0 0
0.0164342 -0.00245137 0
0 0 0
0.0311263 -0.00152075 0
0.0196178 -0.00276112 0
0.0367926 0.000327271 0
0 0 0
0.033388 -0.00168154 0
0.0408998 0.0028674 0
0.0435766 0.00600096 0
0.0356065 -0.00188103 0
0.0450499 0.00930273 0
0 0 0
0.037813 -0.00220092 0
0.0461863 0.0130263 0
0.0226225 -0.00319026 0
0.0399575 -0.0025677 0
0.0471459 0.0182987 0
0 0 0
0.0419937 -0.00301069 0
0.053847 0.00147478 0
0.0439266 -0.00349917 0
0.0590683 0.00686408 0
0.0252565 -0.00371413 0
0 0 0
0.0583123 -0.00031782 0
0.0615382 0.0140173 0
0.0457108 -0.00404224 0
0.0614792 0.0289599 0
0.0473488 -0.00462558 0
0 0 0
0.0620692 -0.00218998 0
0.0488225 -0.00524957 0
0.0273606 -0.00431148 0
0.0652322 -0.00422869 0
0.0501176 -0.00591023 0
0 0 0
0.0764472 0.000483243 0
0.0786371 0.00210714 0
0.0512398 -0.00659823 0
0.0780099 -0.0008831 0
0.080761 0.00404831 0
0.0677844 -0.00642548 0
0.082361 0.00738162 0
0.0819894 0.00294723 0
0.0841284 0.0124149 0
0.0843714 0.0112791 0
0.0794017 -0.00229709 0
0.083871 0.00508228 0
0.0854922 0.0167981 0
0.0846281 0.0103312 0
0.0831138 0.00187102 0
0.085872 0.0158753 0
0.081603 -0.000677422 0
0.0848742 0.0093327 0
0.0867959 0.023211 0
0.0863492 0.0146759 0
0.0869581 0.023204 0
0.125111 0.0442315 0
0.0851152 0.00843837 0
0.0871221 0.0230888 0
0.161747 0.0619069 0
0.120875 0.0414663 0
0.0873745 0.0229813 0
0.157136 0.0591465 0
0.165331 0.0603451 0
0.152582 0.0563364 0
0.0876335 0.022797 0
0.146034 0.0528487 0
0.165525 0.0588623 0
0.115355 0.0379585 0
0.160467 0.0567717 0
0.0869651 0.0132721 0
0.0853863 0.00757016 0
0.0880099 0.0224003 0
0.165103 0.057979 0
0.140361 0.0497905 0
0.164654 0.0572194 0
0.166808 0.0583965 0
0.0883864 0.0219744 0
0.152195 0.0527425 0
0.0521645 -0.00732464 0
0.133548 0.0457505 0
0.163264 0.0563038 0
0.10973 0.0336847 0
0.166153 0.0569639 0
0.161033 0.0550348 0
0.166703 0.057443 0
0.127856 0.0423183 0
0.0288086 -0.00496837 0
0.0888845 0.0210965 0
0.166472 0.0567525 0
0.08565 0.00677209 0
0.0841649 0.000757365 0
0 0 0
0.157001 0.0526609 0
0.166193 0.0560531 0
0.141149 0.0467117 0
0.0852899 0.00330401 0
0.164274 0.054612 0
0.0877317 0.0116954 0
0.121462 0.037861 0
0.165782 0.054943 0
0.0893524 0.0202386 0
0.166776 0.056309 0
0.152258 0.0499923 0
0.165347 0.0538406 0
0.104579 0.0286003 0
0.166388 0.0548642 0
0.11633 0.0341833 0
0.158846 0.0504551 0
0.145411 0.0458756 0
0.164351 0.0522888 0
0.0859755 0.00597872 0
0.166214 0.0548579 0
0.0899283 0.0188635 0
0.128277 0.0386458 0
0.166046 0.0541258 0
0.165724 0.0527059 0
0.162935 0.0505955 0
0.165875 0.0533912 0
0.138804 0.0420236 0
0.0807388 -0.00372343 0
0.110989 0.0297267 0
0.165589 0.0523083 0
0.159923 0.0480779 0
0.0904281 0.017561 0
0.165274 0.0512236 0
0.148341 0.0439485 0
0.165508 0.0528598 0
0.164298 0.0494873 0
0.100508 0.0231121 0
0.0886085 0.00992802 0
0.0863031 0.00524502 0
0.130659 0.0367833 0
0.164796 0.0496305 0
0.107134 0.0262684 0
0.165193 0.0513794 0
0.155833 0.0452302 0
0.115697 0.0296997 0
0.16429 0.0480795 0
0.164702 0.049217 0
0.0910284 0.0158763 0
0.164536 0.0507303 0
0.12362 0.0323585 0
0.160086 0.0446592 0
0.164383 0.0499855 0
0.149243 0.0410835 0
0.163361 0.0459481 0
0.164227 0.0492478 0
0.0851254 -0.000362349 0
0.10361 0.0224071 0
0.133527 0.0350474 0
0.086718 0.00448288 0
0.163997 0.048176 0
0.163935 0.0462147 0
0.162189 0.0438626 0
0.163769 0.0471283 0
0.142209 0.0370159 0
0.0915115 0.0142995 0
0.116043 0.0269659 0
0.0979387 0.0178421 0
0.163429 0.0456557 0
0.163229 0.0478485 0
0.086591 0.00156218 0
0.101358 0.0194771 0
0.159531 0.0410866 0
0.163082 0.0442387 0
0.0895164 0.00791817 0
0.149991 0.0377882 0
0.162954 0.0464128 0
0.162595 0.0422548 0
0.105956 0.0213614 0
0.0871354 0.00376041 0
0.133085 0.0316253 0
0.110493 0.0229388 0
0.162572 0.042296 0
0.162548 0.044397 0
0.155723 0.0381 0
0.092094 0.0125267 0
0.117812 0.0252434 0
0.161832 0.0450146 0
0.162042 0.0404688 0
0.161703 0.044321 0
0.0994898 0.0163576 0
0.161968 0.0416736 0
0.161574 0.0436442 0
0.124876 0.027065 0
0.161388 0.042676 0
0.158867 0.0370372 0
0.149098 0.0340573 0
0.16115 0.0380543 0
0.161204 0.0417393 0
0.105514 0.0185044 0
0.0876522 0.00296174 0
0.133775 0.0288269 0
0.0925482 0.0108678 0
0.0860345 -0.00149784 0
0.160943 0.0404339 0
0.161156 0.0381736 0
0.0963813 0.0129467 0
0.0840252 -0.00353184 0
0.160059 0.035805 0
0.160691 0.0391874 0
0.0982639 0.0138168 0
0.160088 0.0414361 0
0.141525 0.0300005 0
0.116215 0.0215505 0
0.0819061 -0.00519495 0
0.100312 0.0146021 0
0.159859 0.04017 0
0.16034 0.0375069 0
0.0903938 0.00559995 0
0.102423 0.0153363 0
0.0881673 0.00219006 0
0.157459 0.0329581 0
0.159535 0.0384205 0
0.159999 0.0359288 0
0.148577 0.0301703 0
0.106054 0.0165177 0
0.159899 0.0339102 0
0.0930702 0.00905887 0
0.131575 0.0247526 0
0.0877838 -0.000255136 0
0.109989 0.0176232 0
0.159088 0.0360882 0
0.159518 0.0338584 0
0.158338 0.0380847 0
0.0971255 0.0110762 0
0.0696834 -0.00873957 0
0.153558 0.0299731 0
0.158237 0.0374954 0
0.158138 0.0369218 0
0.116294 0.0191974 0
0.157996 0.036107 0
0.159025 0.031944 0
0.100036 0.0120534 0
0.157858 0.0353207 0
0.158496 0.0331053 0
0.0887775 0.00129358 0
0.122598 0.0204217 0
0.0868621 -0.00264828 0
0.157664 0.0342298 0
0.156274 0.0286567 0
0.0529098 -0.00806376 0
0.0934812 0.00734934 0
0.146469 0.0261187 0
0.104815 0.0133087 0
0.157476 0.0331879 0
0.0951853 0.00821018 0
0.158189 0.0294771 0
0.096304 0.00868648 0
0.130794 0.0215668 0
0.157217 0.0317801 0
0.0974735 0.00909062 0
0.156309 0.0341054 0
0.157739 0.0294475 0
0.0985212 0.00940583 0
0.156131 0.0330551 0
0.156971 0.0304503 0
0.1571 0.0272154 0
0.0912433 0.00291873 0
0.113687 0.0151642 0
0.138042 0.0221966 0
0.100064 0.00983146 0
0.0893724 0.000416855 0
0.155882 0.0316161 0
0.156644 0.0287069 0
0.101716 0.0102531 0
0.0938556 0.00537891 0
0.155544 0.0296972 0
0.154285 0.0244134 0
0.104474 0.0109109 0
0.15634 0.0270815 0
0.144962 0.0219857 0
0.0829614 -0.0066748 0
0.0955184 0.00609443 0
0.156606 0.0251538 0
0.0889114 -0.00214401 0
0.154331 0.0304689 0
0.0876068 -0.00383889 0
0.127352 0.0171685 0
0.107635 0.0115797 0
0.154256 0.0299896 0
0.0972929 0.00664379 0
0.155103 0.0272251 0
0.154183 0.0295227 0
0.155924 0.0250029 0
0.154079 0.0288634 0
0.090054 -0.000624869 0
0.149836 0.021464 0
0.153978 0.028225 0
0.112741 0.0125196 0
0.0995213 0.00712386 0
0.153835 0.0273405 0
0.1555 0.0230774 0
0.153696 0.0264908 0
0.0941566 0.00351102 0
0.154553 0.0241558 0
0.0946436 0.00368459 0
0.11814 0.0132405 0
0.0951354 0.00384533 0
0.153505 0.0253385 0
0.0957912 0.00402538 0
0.103121 0.00768491 0
0.152643 0.019964 0
0.141789 0.0177715 0
0.153321 0.0242415 0
0.0964397 0.0041833 0
0.15469 0.0206277 0
0.15212 0.0263061 0
0.0906981 -0.00165087 0
0.0973271 0.00436379 0
0.12552 0.0138746 0
0.151986 0.0254498 0
0.0921611 -0.00011587 0
0.153074 0.022789 0
0.0882741 -0.0050281 0
0.0981518 0.00449313 0
0.0858872 -0.00649215 0
0.153897 0.0204596 0
0.151799 0.0242833 0
0.152841 0.0214163 0
0.153469 0.018375 0
0.0993318 0.00465105 0
0.109892 0.00847754 0
0.132331 0.0140499 0
0.151545 0.0227232 0
0.0943608 0.00132219 0
0.100543 0.00478643 0
0.0899834 -0.00412472 0
0.152545 0.0196477 0
0.0949014 0.00143391 0
0.0838354 -0.00817188 0
0.15121 0.0206906 0
0.102498 0.00500594 0
0.0957799 0.00159698 0
0.150001 0.0225214 0
0.0914034 -0.00288203 0
0.150038 0.0156374 0
0.139344 0.0135155 0
0.15228 0.0179929 0
0.149946 0.0221289 0
0.149891 0.0217453 0
0.152841 0.0161664 0
0.149814 0.0212096 0
0.097082 0.00178208 0
0.104772 0.00524898 0
0.121309 0.00929565 0
0.149739 0.0206883 0
0.150786 0.0181212 0
0.088867 -0.00624338 0
0 0 0
0.149633 0.0199689 0
0.151933 0.0159103 0
0.14953 0.0192728 0
0.144494 0.0126999 0
0.094562 -0.000719977 0
0.0534479 -0.00884941 0
0.108493 0.00559479 0
0.0988214 0.00188971 0
0.0947388 -0.000716659 0
0.149386 0.0183277 0
0.094925 -0.000710173 0
0.095211 -0.000699741 0
0.149246 0.0174194 0
0.151565 0.0139643 0
0.0955183 -0.000683603 0
0.0920457 -0.00409674 0
0.150277 0.0149758 0
0.112725 0.00585095 0
0.0959814 -0.000663389 0
0.149055 0.0162099 0
0.101404 0.00189212 0
0.0964669 -0.00064409 0
0.147625 0.0182368 0
0.0933042 -0.00341507 0
0.147858 0.0110083 0
0.135135 0.00914578 0
0.148873 0.0150565 0
0.147524 0.0175193 0
0.0971411 -0.000642798 0
0.150651 0.0115248 0
0.0909811 -0.00624171 0
0.147384 0.0165537 0
0.118868 0.00600007 0
0.089389 -0.0074473 0
0.0977982 -0.000666228 0
0.148632 0.0135547 0
0.0845697 -0.00966784 0
0.147194 0.0152656 0
0.0949159 -0.00294175 0
0.149715 0.0112217 0
0.0986989 -0.000731156 0
0.148406 0.0121313 0
0.0951177 -0.0030085 0
0.106072 0.00180754 0
0.149043 0.00928183 0
0.0709086 -0.0111377 0
0.0926958 -0.00555487 0
0.12498 0.00577905 0
0.14694 0.0135782 0
0.0954914 -0.00307668 0
0.0995815 -0.00082796 0
0.148136 0.0103289 0
0.0961141 -0.0031557 0
0.145363 0.0143131 0
0.0872278 -0.00946593 0
0.14532 0.013977 0
0.100914 -0.000959225 0
0.146611 0.0114214 0
0.145278 0.0136478 0
0.14522 0.0131976 0
0.0898553 -0.00867841 0
0.144499 0.00668214 0
0.145163 0.012758 0
0.131885 0.00495245 0
0.147912 0.00864197 0
0.0970801 -0.00327133 0
0.145084 0.0121584 0
0.10239 -0.00109239 0
0.148548 0.00693728 0
0.145006 0.0115755 0
0.114621 0.00150947 0
0.0952919 -0.00499607 0
0.095381 -0.00503643 0
0.144898 0.0107883 0
0.146204 0.00874542 0
0.0932572 -0.00698975 0
0.0954711 -0.00507659 0
0.0955969 -0.00513912 0
0.144792 0.0100275 0
0.147606 0.00656031 0
0.098417 -0.00350492 0
0.0957292 -0.00519935 0
0.1048 -0.00125332 0
0.137407 0.00384158 0
0.0959399 -0.00527954 0
0.0918597 -0.00854981 0
0.144649 0.00901664 0
0.0851321 -0.0111638 0
0.0961587 -0.00535822 0
0.14451 0.00804664 0
0.0964955 -0.00546446 0
0.0945298 -0.00705652 0
0.0294967 -0.00567382 0
0.147234 0.00462316 0
0.0902486 -0.00989875 0
0.107687 -0.00142946 0
0.1428 0.00988401 0
0.14574 0.00553854 0
0.0968482 -0.00556973 0
0.144328 0.00678344 0
0.100261 -0.00394476 0
0.142723 0.00925399 0
0.0538001 -0.00962942 0
0.0973488 -0.00572822 0
0.142618 0.00842697 0
0.141672 0.00195732 0
0.144155 0.00558244 0
0.1269 0.000514121 0
0.142478 0.00734041 0
0.0938034 -0.00867845 0
0.0978495 -0.00589863 0
0.0958871 -0.00722109 0
0.145976 0.00227354 0
0.112158 -0.00174018 0
0.0960189 -0.00731978 0
0.143936 0.00405531 0
0.142292 0.00592826 0
0.0962216 -0.00746413 0
0.0985294 -0.00615934 0
0.14526 0.00180909 0
0.103234 -0.00466943 0
0.0965328 -0.00766985 0
0.0905885 -0.0111582 0
0.143735 0.00261452 0
0.0992021 -0.00644141 0
0.143614 0.000115019 0
0.142052 0.00412866 0
0.117097 -0.00228347 0
0.0855659 -0.0126555 0
0.140385 0.00580973 0
0.0970063 -0.00796 0
0.140352 0.00550877 0
0.140318 0.00521395 0
0.140274 0.00482348 0
0.14352 0.000834068 0
0.088101 -0.0124101 0
0.0925633 -0.0110958 0
0.100118 -0.00685233 0
0.14023 0.004442 0
0.0942274 -0.0103417 0
0.141757 0.00189508 0
0.140171 0.00393372 0
0.0976967 -0.00837531 0
0.140113 0.00343916 0
0.0963304 -0.00935478 0
0.0963985 -0.00940386 0
0.0964662 -0.00945314 0
0.137521 -0.00218474 0
0.123299 -0.00333304 0
0.140035 0.00278202 0
0.143336 -0.000828007 0
0.101056 -0.00728375 0
0.096563 -0.0095261 0
0.0966592 -0.00959948 0
0.139959 0.00214615 0
0.0908528 -0.0124084 0
0.108803 -0.00584283 0
0.14367 -0.0023154 0
0.0967972 -0.00970631 0
0.139857 0.00130988 0
0.0969346 -0.00981401 0
0.141422 -0.000792724 0
0.0986393 -0.00898651 0
0.0971302 -0.0099687 0
0.13976 0.00050633 0
0.102493 -0.0078542 0
0.0955082 -0.0111309 0
0.143004 -0.00283154 0
0.0973253 -0.0101252 0
0 0 0
0.128918 -0.00469973 0
0.139635 -0.000533162 0
0.0976018 -0.0103485 0
0.0858488 -0.0141419 0
0.137658 0.00127895 0
0.0714587 -0.0136006 0
0.139518 -0.0015242 0
0.0946054 -0.0122747 0
0.0978752 -0.0105767 0
0.137601 0.000708796 0
0.104169 -0.00843181 0
0.0539392 -0.0104698 0
0.142574 -0.00466431 0
0.137528 -1.04937e-05 0
0.0910595 -0.0137105 0
0.0999427 -0.00986193 0
0.141074 -0.00392571 0
0.098249 -0.0109011 0
0.139377 -0.00278052 0
0.0967368 -0.0117706 0
0.137433 -0.000927851 0
0.0968538 -0.0118689 0
0.0970272 -0.0120155 0
0.0986119 -0.0112358 0
0.118322 -0.00774706 0
0.139247 -0.00396989 0
0.134013 -0.00678745 0
0.137312 -0.00209623 0
0.0930376 -0.0139146 0
0.0972776 -0.0122313 0
0.106908 -0.00919737 0
0.140675 -0.00678575 0
0.099087 -0.0117055 0
0.137162 -0.00356725 0
0.139104 -0.00544577 0
0.0976299 -0.0125459 0
0.101783 -0.0111267 0
0.0911902 -0.0150029 0
0.0885393 -0.0153323 0
0.0948481 -0.0141771 0
0.140612 -0.00747267 0
0.0995461 -0.0121927 0
0.0860156 -0.0156264 0
0.135037 -0.00288478 0
0.0981097 -0.0130011 0
0.138971 -0.00683968 0
0.135014 -0.00315727 0
0.136985 -0.00538552 0
0.110248 -0.0100732 0
0.134992 -0.0034242 0
0.137003 -0.00880846 0
0.134964 -0.00376304 0
0.134937 -0.00409421 0
0.134903 -0.00452116 0
0.0969743 -0.0141246 0
0.100174 -0.0128483 0
0.0970286 -0.0141747 0
0.0970828 -0.014225 0
0.134869 -0.00493712 0
0.0971615 -0.0142995 0
0.0987401 -0.0136561 0
0.138796 -0.00854014 0
0.09724 -0.0143745 0
0.134825 -0.00547643 0
0.0973527 -0.014484 0
0.136783 -0.0075891 0
0.134782 -0.00599982 0
0.0974645 -0.0145945 0
0.0976225 -0.0147537 0
0.0912568 -0.0163594 0
0.100791 -0.0135209 0
0.134729 -0.00667666 0
0.115006 -0.0113731 0
0.129305 -0.010866 0
0.0977784 -0.014915 0
0.13862 -0.0101575 0
0.134678 -0.00733094 0
0.104898 -0.0129654 0
0.0960069 -0.0157311 0
0.0979939 -0.0151443 0
0.138129 -0.0114048 0
0.099532 -0.0145923 0
0.134616 -0.00817092 0
0.0949841 -0.0163609 0
0.0982051 -0.0153776 0
0.0860498 -0.0171046 0
0.13655 -0.010216 0
0.0538865 -0.0112785 0
0.134558 -0.0089803 0
0.101627 -0.0144162 0
0.093209 -0.017041 0
0.0984883 -0.0157051 0
0.138182 -0.0121013 0
0.132155 -0.00737487 0
0.12008 -0.0129875 0
0.134484 -0.010009 0
0.132122 -0.00789924 0
0.0987634 -0.0160399 0
0.0912476 -0.0177051 0
0.132081 -0.00853269 0
0.0970524 -0.0168351 0
0.0971474 -0.0169378 0
0.134412 -0.0109998 0
0.102491 -0.0153239 0
0.10048 -0.0159106 0
0.132031 -0.00931343 0
0.0972863 -0.0170909 0
0.0991202 -0.0165039 0
0.137518 -0.0138847 0
0.0974847 -0.0173159 0
0.0885714 -0.0182402 0
0.136246 -0.0133151 0
0.131972 -0.0102862 0
0.134328 -0.0122426 0
0.0994583 -0.0169809 0
0.0977605 -0.0176426 0
0.0713424 -0.0161139 0
0.110902 -0.0156964 0
0.0949511 -0.0185136 0
0.131901 -0.0115018 0
0.125326 -0.0153518 0
0.0859747 -0.0185796 0
0.134237 -0.0134439 0
0.103852 -0.0164935 0
0.0981332 -0.0181123 0
0.0998815 -0.0176314 0
0.0911582 -0.0191284 0
0.13461 -0.0158335 0
0.131814 -0.0130141 0
0 0 0
0.134114 -0.0149339 0
0.101621 -0.0177215 0
0.129283 -0.0115606 0
0.098619 -0.018781 0
0.100274 -0.0183032 0
0.129273 -0.0118169 0
0.129263 -0.0120689 0
0.0293388 -0.00640677 0
0.0969147 -0.019482 0
0.129252 -0.0123738 0
0.135616 -0.0168754 0
0.0969574 -0.0195343 0
0.097 -0.0195869 0
0.129241 -0.0126733 0
0.105464 -0.0177373 0
0.0970621 -0.0196647 0
0.131705 -0.0148852 0
0.133968 -0.0163728 0
0.129228 -0.0130453 0
0.0971238 -0.0197428 0
0.129148 -0.0177702 0
0.0972125 -0.0198569 0
0.129215 -0.0134103 0
0.0973001 -0.0199717 0
0.100743 -0.0192115 0
0.129199 -0.0138713 0
0.099223 -0.0197249 0
0.0974234 -0.0201367 0
0.0929744 -0.0205037 0
0.0536136 -0.0121638 0
0.129182 -0.0143231 0
0.0909922 -0.0205411 0
0.0975448 -0.0203032 0
0.0857817 -0.0200459 0
0.129163 -0.014897 0
0.0977115 -0.020539 0
0.133736 -0.0181265 0
0.0947278 -0.0209504 0
0.0957595 -0.0208976 0
0.129142 -0.0154601 0
0.0978743 -0.0207779 0
0.131544 -0.0171878 0
0.10116 -0.020157 0
0.12912 -0.0161767 0
0.108172 -0.0193924 0
0.0980921 -0.0211113 0
0.120144 -0.0196507 0
0.0882249 -0.0211353 0
0.0999282 -0.0210444 0
0.10303 -0.0202376 0
0.129095 -0.0168809 0
0.0983024 -0.0214503 0
0.133488 -0.0198344 0
0.131461 -0.0208185 0
0.129058 -0.0177781 0
0.0985737 -0.021917 0
0.101628 -0.0214133 0
0.0907229 -0.0220423 0
0.126102 -0.0160887 0
0.131281 -0.019987 0
0.0965246 -0.022457 0
0.129014 -0.01866 0
0.126089 -0.0166095 0
0.0965993 -0.0225632 0
0.0988316 -0.0223936 0
0.0967082 -0.0227211 0
0.0854853 -0.0215066 0
0.126074 -0.0172158 0
0.13276 -0.0218576 0
0.111596 -0.0213524 0
0.0968634 -0.0229523 0
0.128948 -0.019775 0
0.126055 -0.017941 0
0.0991512 -0.0230398 0
0.100672 -0.0228681 0
0.0970787 -0.0232866 0
0.0943074 -0.0233472 0
0.102011 -0.0227167 0
0.126034 -0.0188266 0
0.128871 -0.0208687 0
0.0973683 -0.023764 0
0.0994458 -0.0237028 0
0.131491 -0.0236932 0
0.126003 -0.0199262 0
0.0903758 -0.0235314 0
0.130853 -0.0233261 0
0.128758 -0.0222324 0
0.0977429 -0.0244379 0
0.0531482 -0.0129793 0
0.0705736 -0.0186573 0
0.105342 -0.0238957 0
0.0997881 -0.0245885 0
0.0922071 -0.0243157 0
0.125953 -0.0213017 0
0.115652 -0.0241216 0
0.102383 -0.0244239 0
0.0850843 -0.0229559 0
0.128628 -0.0235645 0
0.0982048 -0.0253794 0
0.126885 -0.0254176 0
0.0958967 -0.0253542 0
0.122866 -0.0204697 0
0.0959306 -0.025408 0
0.0959643 -0.025462 0
0.100089 -0.0254982 0
0.0875168 -0.0240192 0
0.122863 -0.0207415 0
0.101354 -0.025348 0
0.0960137 -0.0255418 0
0.12587 -0.0230212 0
0.0960627 -0.0256219 0
0.122861 -0.0210104 0
0.0961331 -0.0257385 0
0.12286 -0.0213213 0
0.0962027 -0.0258557 0
0.12844 -0.0251957 0
0.122857 -0.0216292 0
0.0963004 -0.0260237 0
0.122855 -0.0219954 0
0.0963963 -0.026193 0
0.0899058 -0.0251157 0
0.122852 -0.0223587 0
0.0936244 -0.0260054 0
0.102661 -0.0261695 0
0.0965276 -0.0264321 0
0.129793 -0.0271137 0
0.122847 -0.0228023 0
0.0987367 -0.0266815 0
0.0966556 -0.0266735 0
0.10041 -0.0266932 0
0.12573 -0.02515 0
0.12284 -0.0232424 0
0.128222 -0.0267757 0
0.119528 -0.0271313 0
0.0945323 -0.026556 0
0 0 0
0.096826 -0.0270094 0
0.122829 -0.0237887 0
0.0845865 -0.0243965 0
0.0969899 -0.0273497 0
0.122816 -0.0243304 0
0.122795 -0.0250087 0
0.0972007 -0.0278163 0
0.100658 -0.027927 0
0.127882 -0.0286629 0
0.122771 -0.0256802 0
0.125494 -0.027742 0
0.0973995 -0.028291 0
0.0992925 -0.0284631 0
0.103426 -0.0282919 0
0.0893525 -0.0266842 0
0.122735 -0.0265223 0
0.110503 -0.0289744 0
0.101777 -0.0286453 0
0.0524517 -0.0138803 0
0.097644 -0.0289324 0
0.0949373 -0.0285338 0
0.122692 -0.0273536 0
0.0949986 -0.0286423 0
0.12752 -0.0305054 0
0.0950875 -0.0288033 0
0.119165 -0.0253666 0
0.100871 -0.0295334 0
0.12255 -0.0308633 0
0.0952135 -0.0290386 0
0.0978669 -0.0295878 0
0.12263 -0.0283913 0
0.119163 -0.0259506 0
0.0927275 -0.0286056 0
0.0839965 -0.0258214 0
0.0953876 -0.0293778 0
0.11916 -0.0266077 0
0.0864584 -0.0268891 0
0.125107 -0.0308334 0
0.0907854 -0.0284531 0
0.122558 -0.0294122 0
0.0956204 -0.02986 0
0.0981244 -0.0304607 0
0.119153 -0.0273687 0
0.104494 -0.0305786 0
0.0997637 -0.030879 0
0.126125 -0.0325594 0
0.119138 -0.0282716 0
0.0959194 -0.0305372 0
0.0886543 -0.0283491 0
0.100941 -0.031214 0
0.122454 -0.0306738 0
0.0983433 -0.031358 0
0.0691704 -0.0211872 0
0.119111 -0.0293623 0
0.122335 -0.0319111 0
0.0962835 -0.0314771 0
0.0282911 -0.0071208 0
0.123451 -0.0343618 0
0.119064 -0.0306932 0
0.0833155 -0.0272324 0
0.0985664 -0.0325357 0
0.124499 -0.0344492 0
0.122164 -0.0334169 0
0.101923 -0.0329929 0
0.0937232 -0.0316072 0
0.0937511 -0.031662 0
0.0937787 -0.0317169 0
0.0938196 -0.031798 0
0.100839 -0.0333507 0
0.0938601 -0.0318794 0
0.0966943 -0.0327672 0
0.106365 -0.0335267 0
0.0939185 -0.0319977 0
0.118984 -0.0323222 0
0.0939762 -0.0321166 0
0.0940571 -0.0322867 0
0.0915105 -0.0314167 0
0.0878738 -0.0299889 0
0.11538 -0.0302336 0
0.0987225 -0.0337519 0
0.0941365 -0.0324577 0
0.0515769 -0.0146643 0
0.121972 -0.0348893 0
0.115381 -0.0305513 0
0.0999158 -0.0341216 0
0.094245 -0.0326988 0
0.115381 -0.0308678 0
0.116769 -0.0356856 0
0.0943504 -0.0329418 0
0.11538 -0.0312194 0
0.115378 -0.0315697 0
0.0944902 -0.033279 0
0.11885 -0.0343084 0
0.115375 -0.0319691 0
0.0921474 -0.0325555 0
0.0946241 -0.0336198 0
0.115371 -0.0323667 0
0.0971009 -0.0345188 0
0.121706 -0.0366525 0
0.0850629 -0.0297318 0
0.115364 -0.0328309 0
0.0825544 -0.0286189 0
0.10058 -0.0355412 0
0.0988144 -0.0353178 0
0.0947954 -0.0340854 0
0.115355 -0.0332925 0
0.122506 -0.0383793 0