# vtk DataFile Version 3.0
File generated from DClib
ASCII

DATASET UNSTRUCTURED_GRID
POINTS 1909 float
50 0 0 
48.75 0 0 
50 1.66667 0 
47.5 0 0 
50 3.33333 0 
46.25 0 0 
50 5 0 
45 0 0 
43.75 0 0 
50 6.66667 0 
43 2 0 
42.5 0 0 
50 8.33333 0 
43 4.66667 0 
41.25 0 0 
41.075 2 0 
50 10 0 
40 0 0 
43 7.33333 0 
39.15 2 0 
38.75 0 0 
43 10 0 
37.5 0 0 
37.225 2 0 
36.25 0 0 
36 4 0 
35.3 2 0 
36 5 0 
35 0 0 
35.325 4 0 
36 6 0 
36 7 0 
34.65 4 0 
36 8 0 
33.75 0 0 
33.975 4 0 
36 9 0 
33.375 2 0 
33.3 4 0 
36 10 0 
32.5 0 0 
32.625 4 0 
33 6 0 
31.95 4 0 
33 7.45455 0 
31.45 2 0 
31.25 0 0 
31.95 6 0 
33 8.79545 0 
31.275 4 0 
33 10 0 
30.6 4 0 
30 0 0 
30.9 6 0 
29.925 4 0 
29.525 2 0 
29.85 6 0 
29.25 4 0 
28.75 0 0 
30 8 0 
30 8.45455 0 
28.575 4 0 
29.625 8 0 
30 8.90909 0 
28.8 6 0 
30 9.25 0 
29.782 8.90909 0 
30 9.59091 0 
29.9487 9.59091 0 
29.25 8 0 
29.7462 9.25 0 
30 9.79545 0 
29.897 9.59091 0 
29.564 8.90909 0 
29.9547 9.79545 0 
29.3462 8.45455 0 
29.84 9.59091 0 
30 10 0 
29.8975 9.79545 0 
29.9882 10 0 
29.9902 10.0098 0 
29.7827 9.59091 0 
29.9765 10 0 
29.9804 10.0196 0 
29.9667 10.0098 0 
29.9591 10 0 
29.9686 10.0196 0 
29.9659 10.0341 0 
29.9569 10.0196 0 
29.9418 10 0 
29.9395 10.0196 0 
29.9515 10.0485 0 
29.932 10.0098 0 
29.9424 10.0341 0 
29.8241 9.79545 0 
29.7181 9.59091 0 
29.9166 10 0 
29.9397 10.0485 0 
29.9222 10.0196 0 
29.9279 10.0485 0 
29.9305 10.0695 0 
29.8914 10 0 
29.9077 10.0341 0 
27.9 4 0 
29.897 10.0196 0 
29.9106 10.0485 0 
29.8817 10.0098 0 
29.907 10.0695 0 
29.8933 10.0485 0 
29.9095 10.0905 0 
29.8719 10.0196 0 
27.6 2 0 
29.8556 10 0 
29.8978 10.0905 0 
29.6531 9.59091 0 
29.3437 8.90909 0 
27.5 0 0 
29.8681 10.0485 0 
29.886 10.0905 0 
29.8574 10.0341 0 
29.4839 9.25 0 
29.8723 10.0695 0 
29.7289 9.79545 0 
29.836 10.0196 0 
29.8687 10.0905 0 
29.8197 10 0 
29.8797 10.1203 0 
29.843 10.0485 0 
29.8513 10.0905 0 
29.81 10.0098 0 
29.8561 10.1203 0 
29.8002 10.0196 0 
29.8221 10.0695 0 
29.8072 10.0485 0 
29.8262 10.0905 0 
29.5782 9.59091 0 
29.8498 10.1502 0 
29.7695 10 0 
29.7858 10.0341 0 
29.838 10.1502 0 
29.8215 10.1203 0 
29.8011 10.0905 0 
29.8262 10.1502 0 
29.7714 10.0485 0 
28.875 8 0 
29.75 10.0196 0 
29.8089 10.1502 0 
29.7654 10.0905 0 
29.7193 10 0 
29.7916 10.1502 0 
29.7505 10.0695 0 
29.8079 10.1921 0 
29.7713 10.1203 0 
29.7096 10.0098 0 
29.6047 9.79545 0 
29.503 9.59091 0 
29.7213 10.0485 0 
29.7665 10.1502 0 
29.6999 10.0196 0 
29.7844 10.1921 0 
29.7296 10.0905 0 
29.6856 10.0341 0 
29.7414 10.1502 0 
29.7497 10.1921 0 
29.6503 10 0 
29.7661 10.2339 0 
29.6712 10.0485 0 
29.6999 10.1203 0 
29.7543 10.2339 0 
29.6796 10.0905 0 
29.7057 10.1502 0 
29.7425 10.2339 0 
29.1235 8.90909 0 
29.6309 10.0196 0 
29.6504 10.0695 0 
29.4146 9.59091 0 
29.7252 10.2339 0 
29.6996 10.1921 0 
29.6701 10.1502 0 
29.7079 10.2339 0 
29.6296 10.0905 0 
29.5813 10 0 
29.6023 10.0485 0 
29.5716 10.0098 0 
29.6828 10.2339 0 
29.7086 10.2914 0 
29.2101 9.25 0 
29.562 10.0196 0 
29.6201 10.1502 0 
29.6578 10.2339 0 
29.4428 9.79545 0 
29.5999 10.1203 0 
29.6849 10.2914 0 
29.6283 10.1921 0 
29.5477 10.0341 0 
29.3259 9.59091 0 
29.5608 10.0905 0 
29.5335 10.0485 0 
29.6221 10.2339 0 
29.6503 10.2914 0 
29.5702 10.1502 0 
29.4881 10 0 
29.5128 10.0695 0 
29.6511 10.3489 0 
29.5866 10.2339 0 
29.6392 10.3489 0 
29.4689 10.0196 0 
29.6002 10.2914 0 
29.6273 10.3489 0 
29.4921 10.0905 0 
29.61 10.3489 0 
29.5286 10.1921 0 
29.5016 10.1502 0 
29.5368 10.2339 0 
29.5926 10.3489 0 
29.4405 10.0485 0 
29.2199 9.59091 0 
29.4626 10.1203 0 
29.3949 10 0 
28.9 8.90909 0 
29.5676 10.3489 0 
29.5291 10.2914 0 
29.3853 10.0098 0 
28.6923 8.45455 0 
29.487 10.2339 0 
29.5426 10.3489 0 
29.3758 10.0196 0 
29.5734 10.4266 0 
29.4331 10.1502 0 
29.3993 10.0905 0 
28.5 8 0 
29.3617 10.0341 0 
29.5496 10.4266 0 
29.5071 10.3489 0 
29.2327 9.79545 0 
29.3475 10.0485 0 
29.1136 9.59091 0 
29.4187 10.2339 0 
29.5148 10.4266 0 
29.4716 10.3489 0 
29.3918 10.1921 0 
29.3271 10.0695 0 
29.4298 10.2914 0 
29.2714 10 0 
29.3406 10.1502 0 
28.9208 9.25 0 
29.3066 10.0905 0 
29.4648 10.4266 0 
29.422 10.3489 0 
29.4958 10.5042 0 
29.2524 10.0196 0 
27.75 6 0 
29.3504 10.2339 0 
29.4837 10.5042 0 
29.4718 10.5042 0 
29.2774 10.1203 0 
29.4543 10.5042 0 
29.3724 10.3489 0 
29.2244 10.0485 0 
29.4369 10.5042 0 
29.3938 10.4266 0 
28.9853 9.59091 0 
29.2481 10.1502 0 
28.6766 8.90909 0 
29.4119 10.5042 0 
29.2934 10.2914 0 
27.225 4 0 
29.148 10 0 
29.2582 10.2339 0 
29.1837 10.0905 0 
29.3869 10.5042 0 
29.1385 10.0098 0 
29.3044 10.3489 0 
29.1291 10.0196 0 
29.2072 10.1921 0 
29.3514 10.5042 0 
29.1152 10.0341 0 
29.3929 10.6071 0 
29.2949 10.4266 0 
29.1013 10.0485 0 
29.3686 10.6071 0 
29.316 10.5042 0 
29.2364 10.3489 0 
28.9623 9.79545 0 
29.1257 10.1502 0 
29.1662 10.2339 0 
29.0811 10.0695 0 
28.8566 9.59091 0 
29.3336 10.6071 0 
29.2666 10.5042 0 
29.0609 10.0905 0 
28.9875 10 0 
29.2835 10.6071 0 
29.1448 10.3489 0 
29.0321 10.1203 0 
29.2173 10.5042 0 
29.1098 10.2914 0 
28.125 8 0 
28.9688 10.0196 0 
29.1594 10.4266 0 
28.611 9.25 0 
29.29 10.71 0 
28.4486 8.90909 0 
29.0443 10.2339 0 
29.0033 10.1502 0 
29.2777 10.71 0 
28.9413 10.0485 0 
29.2128 10.6071 0 
29.2655 10.71 0 
29.1497 10.5042 0 
29.2478 10.71 0 
28.7003 9.59091 0 
29.0533 10.3489 0 
29.2303 10.71 0 
28.9629 10.1921 0 
28.9013 10.0905 0 
29.2051 10.71 0 
29.0822 10.5042 0 
29.1801 10.71 0 
28.827 10 0 
29.1144 10.6071 0 
28.8177 10.0098 0 
28.9225 10.2339 0 
28.8085 10.0196 0 
29.1447 10.71 0 
28.7949 10.0341 0 
28.8443 10.1502 0 
28.977 10.4266 0 
28.9322 10.3489 0 
29.1094 10.71 0 
28.7813 10.0485 0 
28.9912 10.5042 0 
29.1562 10.8438 0 
28.5436 9.59091 0 
28.7615 10.0695 0 
28.8669 10.2914 0 
29.1313 10.8438 0 
28.6184 9.79545 0 
29.0602 10.71 0 
28.2207 8.90909 0 
28.7418 10.0905 0 
28.0378 8.45455 0 
28.9798 10.6071 0 
29.0958 10.8438 0 
29.0112 10.71 0 
28.9005 10.5042 0 
28.7136 10.1203 0 
28.7644 10.2339 0 
28.8113 10.3489 0 
29.0454 10.8438 0 
28.6223 10 0 
28.6854 10.1502 0 
28.2746 9.25 0 
28.9441 10.71 0 
28.6042 10.0196 0 
27.75 8 0 
28.9747 10.8438 0 
28.6459 10.1921 0 
28.5773 10.0485 0 
29.0225 10.9775 0 
28.3532 9.59091 0 
28.7804 10.5042 0 
28.736 10.4266 0 
28.8772 10.71 0 
29.0097 10.9775 0 
28.9971 10.9775 0 
28.799 10.6071 0 
28.9791 10.9775 0 
28.5384 10.0905 0 
28.6064 10.2339 0 
28.6543 10.3489 0 
28.9611 10.9775 0 
28.8769 10.8438 0 
27.9867 8.90909 0 
26.25 0 0 
28.9358 10.9775 0 
28.7871 10.71 0 
28.9106 10.9775 0 
28.6607 10.5042 0 
28.4177 10 0 
26.55 4 0 
28.552 10.2914 0 
28.483 10.1502 0 
28.4087 10.0098 0 
28.8751 10.9775 0 
28.3998 10.0196 0 
28.3866 10.0341 0 
28.8399 10.9775 0 
28.6974 10.71 0 
28.3735 10.0485 0 
28.1625 9.59091 0 
28.7436 10.8438 0 
28.4976 10.3489 0 
28.3543 10.0695 0 
28.791 10.9775 0 
28.4052 10.2339 0 
28.3352 10.0905 0 
28.8519 11.1481 0 
28.1869 9.79545 0 
28.5607 10.6071 0 
28.5053 10.5042 0 
28.7423 10.9775 0 
28.8258 11.1481 0 
28.308 10.1203 0 
28.5787 10.71 0 
27.904 9.25 0 
28.7893 11.1481 0 
28.424 10.4266 0 
27.7528 8.90909 0 
28.2807 10.1502 0 
28.6758 10.9775 0 
27.375 8 0 
28.7383 11.1481 0 
28.1619 10 0 
28.5649 10.8438 0 
28.2425 10.1921 0 
28.6096 10.9775 0 
28.1444 10.0196 0 
28.298 10.3489 0 
28.4605 10.71 0 
26.7 6 0 
27.9315 9.59091 0 
28.3503 10.5042 0 
28.6676 11.1481 0 
28.1187 10.0485 0 
28.2042 10.2339 0 
28.5207 10.9775 0 
28.0813 10.0905 0 
28.6814 11.3186 0 
27.3818 8.45455 0 
28.6679 11.3186 0 
28.1516 10.2914 0 
28.5703 11.1481 0 
28.6544 11.3186 0 
28.6358 11.3186 0 
27.5109 8.90909 0 
28.3072 10.71 0 
28.6173 11.3186 0 
28.2524 10.6071 0 
28.4322 10.9775 0 
28.028 10.1502 0 
28.5915 11.3186 0 
28.0989 10.3489 0 
28.33 10.8438 0 
28.5658 11.3186 0 
28.153 10.5042 0 
27.9061 10 0 
27.8975 10.0098 0 
28.5303 11.3186 0 
28.4384 11.1481 0 
27.7002 9.59091 0 
27.889 10.0196 0 
27.8765 10.0341 0 
28.4949 11.3186 0 
28.3154 10.9775 0 
27.9532 10.2339 0 
27.8639 10.0485 0 
28.0276 10.4266 0 
28.1544 10.71 0 
27.8457 10.0695 0 
27.4909 9.25 0 
28.4463 11.3186 0 
27 8 0 
27.8275 10.0905 0 
28.3979 11.3186 0 
27.8015 10.1203 0 
27.6542 9.79545 0 
25.675 2 0 
28.1991 10.9775 0 
27.2691 8.90909 0 
27.9563 10.5042 0 
28.4682 11.5318 0 
28.2625 11.1481 0 
27.7755 10.1502 0 
28.3322 11.3186 0 
27.8502 10.3489 0 
28.4401 11.5318 0 
25.875 4 0 
27.7391 10.1921 0 
28.4019 11.5318 0 
28.0268 10.8438 0 
28.2668 11.3186 0 
27.9602 10.71 0 
28.3498 11.5318 0 
27.4223 9.59091 0 
27.7026 10.2339 0 
27.5927 10 0 
28.0486 10.9775 0 
27.8616 10.6071 0 
27.5762 10.0196 0 
28.1794 11.3186 0 
28.2786 11.5318 0 
27.5519 10.0485 0 
27.6524 10.2914 0 
28.0319 11.1481 0 
27.7108 10.5042 0 
27.5167 10.0905 0 
27.0169 8.90909 0 
28.0924 11.3186 0 
27.6021 10.3489 0 
27.8988 10.9775 0 
28.1818 11.5318 0 
27.7667 10.71 0 
26.625 8 0 
28.255 11.745 0 
27.4664 10.1502 0 
28.2402 11.745 0 
28.2256 11.745 0 
28.2059 11.745 0 
27.978 11.3186 0 
26.7234 8.45455 0 
27.0259 9.25 0 
27.5342 10.4266 0 
28.1863 11.745 0 
27.1442 9.59091 0 
28.0516 11.5318 0 
28.1598 11.745 0 
27.3959 10.2339 0 
28.1334 11.745 0 
27.2793 10 0 
27.2714 10.0098 0 
27.2635 10.0196 0 
27.7086 10.9775 0 
27.6431 10.8438 0 
28.0975 11.745 0 
27.8643 11.3186 0 
27.4661 10.5042 0 
27.2518 10.0341 0 
27.2401 10.0485 0 
28.0617 11.745 0 
26.7648 8.90909 0 
27.5255 10.71 0 
27.7353 11.1481 0 
27.2231 10.0695 0 
28.0133 11.745 0 
27.2061 10.0905 0 
27.8791 11.5318 0 
27.2986 10.3489 0 
27.1818 10.1203 0 
27.9651 11.745 0 
27.3758 10.6071 0 
27.0077 9.79545 0 
27.7174 11.3186 0 
27.1576 10.1502 0 
25 0 0 
27.5193 10.9775 0 
27.9003 11.745 0 
27.1236 10.1921 0 
26.25 8 0 
27.9939 12.0061 0 
25.65 6 0 
27.8359 11.745 0 
26.8136 9.59091 0 
27.0896 10.2339 0 
27.9626 12.0061 0 
27.2853 10.71 0 
25.2 4 0 
27.5713 11.3186 0 
27.9218 12.0061 0 
26.4998 8.90909 0 
27.167 10.5042 0 
27.6541 11.5318 0 
27.0427 10.2914 0 
27.7503 11.745 0 
26.9033 10 0 
27.8677 12.0061 0 
26.8882 10.0196 0 
26.8659 10.0485 0 
26.9958 10.3489 0 
27.2836 10.9775 0 
27.6652 11.745 0 
27.3609 11.1481 0 
27.7955 12.0061 0 
26.499 9.25 0 
[...]
POINT_DATA 1909
SCALARS phi float 1
LOOKUP_TABLE default
VECTORS Displacement float
0 0 0
0 0 0
0 -0.00214264 0
0 0 0
0 -0.00110842 0
0 0 0
0 0.00273517 0
0 0 0
0 0 0
0 0.00905082 0
0.0183014 -0.000748233 0
0 0 0
0 0.0176021 0
0.0346778 0.00653347 0
0 0 0
0.0248022 -0.000712971 0
0 0.0274743 0
0 0 0
0.0454793 0.0207625 0
0.0317256 -0.000830343 0
0 0 0
0.0511968 0.0398277 0
0 0 0
0.0388952 -0.00117545 0
0 0 0
0.0728037 0.00501144 0
0.0459145 -0.00171156 0
0.0859713 0.0108017 0
0 0 0
0.0780735 0.00464183 0
0.0950536 0.0180741 0
0.100835 0.0262718 0
0.0831211 0.00423889 0
0.104568 0.0346429 0
0 0 0
0.0881521 0.00361109 0
0.107583 0.0435416 0
0.0524249 -0.00241323 0
0.092935 0.00293904 0
0.110412 0.0540385 0
0 0 0
0.097471 0.00214414 0
0.125413 0.0156414 0
0.101712 0.00130466 0
0.137854 0.0305098 0
0.0581062 -0.00325349 0
0 0 0
0.13592 0.0117536 0
0.143653 0.0504185 0
0.105659 0.000338353 0
0.145343 0.077859 0
0.109262 -0.000677209 0
0 0 0
0.14436 0.00813827 0
0.112543 -0.00178326 0
0.0626863 -0.00421306 0
0.151425 0.0043393 0
0.115452 -0.00295141 0
0 0 0
0.179031 0.0179397 0
0.184839 0.0224276 0
0.11802 -0.00417122 0
0.182547 0.0151843 0
0.190845 0.0281649 0
0.157214 0.000259242 0
0.195407 0.0361809 0
0.193525 0.0251967 0
0.200195 0.047586 0
0.201013 0.044925 0
0.185634 0.0124149 0
0.198939 0.0306651 0
0.201274 0.0553332 0
0.2018 0.04275 0
0.195903 0.0226054 0
0.202065 0.0525873 0
0.191413 0.0164953 0
0.202563 0.0406041 0
0.201704 0.0638774 0
0.203133 0.0494946 0
0.202074 0.0641061 0
0.292038 0.0965924 0
0.203264 0.038727 0
0.202502 0.0640981 0
0.361702 0.120788 0
0.290407 0.0956763 0
0.203174 0.0640027 0
0.359987 0.119822 0
0.365212 0.12039 0
0.358017 0.118591 0
0.203909 0.0637459 0
0.354617 0.116826 0
0.365211 0.119354 0
0.287415 0.0935855 0
0.363661 0.118316 0
0.204591 0.0462091 0
0.203965 0.0368405 0
0.204997 0.0629681 0
0.365064 0.118422 0
0.351093 0.11485 0
0.364943 0.117542 0
0.365367 0.11811 0
0.206122 0.0621272 0
0.360001 0.115327 0
0.120213 -0.00548073 0
0.346048 0.111838 0
0.36454 0.116394 0
0.28326 0.0895914 0
0.365165 0.116448 0
0.363989 0.115126 0
0.364666 0.116731 0
0.341114 0.108782 0
0.0659126 -0.00526068 0
0.207654 0.0604276 0
0.364604 0.115906 0
0.204598 0.0351348 0
0.198173 0.0202529 0
0 0 0
0.362772 0.113153 0
0.364521 0.115058 0
0.353698 0.110431 0
0.201997 0.0265311 0
0.364722 0.113877 0
0.206495 0.0427647 0
0.334633 0.104209 0
0.364374 0.113731 0
0.209151 0.0588 0
0.363787 0.114799 0
0.361045 0.110975 0
0.364213 0.112345 0
0.277972 0.083221 0
0.363633 0.11298 0
0.328325 0.0997936 0
0.363339 0.109665 0
0.35813 0.107553 0
0.363922 0.110256 0
0.205274 0.0333651 0
0.362743 0.112668 0
0.211052 0.056255 0
0.344205 0.102649 0
0.362648 0.111711 0
0.363366 0.11013 0
0.363587 0.108121 0
0.362551 0.110733 0
0.354651 0.104048 0
0.188603 0.00968882 0
0.320141 0.0936471 0
0.362397 0.10927 0
0.362865 0.105085 0
0.21279 0.0538879 0
0.362237 0.107792 0
0.359705 0.103248 0
0.361271 0.109518 0
0.362914 0.105866 0
0.27112 0.0745063 0
0.208801 0.0391327 0
0.205893 0.0317143 0
0.349394 0.0990028 0
0.361999 0.105639 0
0.312276 0.0878853 0
0.361085 0.107502 0
0.361853 0.102046 0
0.330671 0.0918089 0
0.361758 0.103504 0
0.360794 0.104523 0
0.214874 0.050796 0
0.359826 0.106269 0
0.343688 0.0940751 0
0.361985 0.0998735 0
0.359717 0.105241 0
0.359885 0.0978683 0
0.361412 0.10051 0
0.359608 0.10422 0
0.200223 0.0179842 0
0.302174 0.0804547 0
0.352291 0.094269 0
0.206606 0.0299672 0
0.359448 0.102728 0
0.360352 0.100293 0
0.361077 0.0976188 0
0.359289 0.101257 0
0.357304 0.0937605 0
0.216636 0.0479254 0
0.335535 0.0875117 0
0.262193 0.0639329 0
0.359063 0.0991633 0
0.357906 0.101785 0
0.204766 0.0228526 0
0.292712 0.0736358 0
0.360494 0.0937536 0
0.358841 0.0971235 0
0.211411 0.0353174 0
0.359517 0.0920056 0
0.357705 0.0997773 0
0.359735 0.0946006 0
0.312335 0.0782694 0
0.207299 0.028326 0
0.352901 0.0883467 0
0.32711 0.0812457 0
0.35853 0.0943137 0
0.357409 0.0969109 0
0.359784 0.0900871 0
0.218633 0.0446265 0
0.339395 0.0826483 0
0.356055 0.0974172 0
0.358226 0.0916183 0
0.355953 0.0964363 0
0.280966 0.0654856 0
0.356984 0.0929552 0
0.355852 0.0954716 0
0.347737 0.0830877 0
0.355706 0.0940803 0
0.358866 0.0873541 0
0.358279 0.0853738 0
0.357821 0.0880197 0
0.355561 0.0927212 0
0.315508 0.0734264 0
0.208144 0.0265523 0
0.353402 0.0821914 0
0.220192 0.0415421 0
0.202176 0.0157861 0
0.355356 0.0908049 0
0.356403 0.0877133 0
0.251214 0.0523306 0
0.196756 0.0110002 0
0.357445 0.0846375 0
0.355155 0.0889498 0
0.270593 0.0582521 0
0.35378 0.0918046 0
0.356193 0.0808726 0
0.339686 0.0764267 0
0.191266 0.00687587 0
0.28903 0.0628577 0
0.353594 0.0899708 0
0.354877 0.0864044 0
0.214173 0.031254 0
0.303905 0.0660603 0
0.209027 0.0248972 0
0.356899 0.0802688 0
0.353325 0.0873913 0
0.354608 0.0839688 0
0.356939 0.0785628 0
0.319143 0.0685291 0
0.355657 0.0810868 0
0.221868 0.03821 0
0.352234 0.0752383 0
0.207343 0.019285 0
0.330737 0.0699526 0
0.352947 0.0838635 0
0.354243 0.0807281 0
0.351533 0.0865038 0
0.258807 0.0502419 0
0.161642 -0.00403854 0
0.356304 0.0762182 0
0.35145 0.0856335 0
0.351368 0.0847796 0
0.340768 0.0702166 0
0.351249 0.083556 0
0.353891 0.0776627 0
0.288959 0.0574093 0
0.351132 0.0823619 0
0.352428 0.0792047 0
0.210072 0.0230198 0
0.347252 0.0697875 0
0.203981 0.0135922 0
0.350964 0.0806849 0
0.354756 0.0730661 0
0.122048 -0.00679342 0
0.223101 0.0350638 0
0.35501 0.0711623 0
0.317663 0.0620943 0
0.350798 0.0790606 0
0.239856 0.0407788 0
0.353434 0.073692 0
0.249721 0.0436158 0
0.351446 0.0682318 0
0.350565 0.0768314 0
0.263244 0.0470564 0
0.348876 0.0800158 0
0.351744 0.0732763 0
0.27523 0.049661 0
0.348725 0.0784157 0
0.350336 0.0746905 0
0.353009 0.0699867 0
0.216882 0.026694 0
0.338841 0.0631323 0
0.35312 0.0664114 0
0.29068 0.0525314 0
0.211156 0.0212341 0
0.348506 0.0761817 0
0.350019 0.0718269 0
0.303837 0.054529 0
0.224366 0.0316105 0
0.348198 0.0731301 0
0.352455 0.0653079 0
0.317983 0.0559433 0
0.349711 0.0691036 0
0.353039 0.0636903 0
0.193696 0.0040515 0
0.240937 0.0367227 0
0.350887 0.0660254 0
0.209767 0.0156333 0
0.346219 0.0739715 0
0.205654 0.0113399 0
0.34924 0.0606572 0
0.328809 0.0565637 0
0.346156 0.0732205 0
0.260073 0.0411516 0
0.347772 0.0690798 0
0.346094 0.0724832 0
0.349296 0.0655655 0
0.346005 0.0714338 0
0.212425 0.0191471 0
0.351884 0.0610147 0
0.345917 0.0704076 0
0.338195 0.0561175 0
0.2861 0.0458447 0
0.345789 0.0689709 0
0.348896 0.0622388 0
0.345663 0.067574 0
0.225302 0.0283397 0
0.347199 0.0638862 0
0.231448 0.030326 0
0.344058 0.0551532 0
0.235553 0.0314245 0
0.345483 0.065657 0
0.242069 0.0330169 0
0.313659 0.0489179 0
0.349918 0.057529 0
0.350646 0.0558017 0
0.345304 0.0638085 0
0.248849 0.0344839 0
0.348391 0.0580482 0
0.343081 0.0667788 0
0.213694 0.0171233 0
0.259641 0.0366231 0
0.347647 0.0531625 0
0.342968 0.0653948 0
0.219354 0.0213119 0
0.345054 0.061333 0
0.207206 0.00910203 0
0.270174 0.0383563 0
0.20103 0.00534926 0
0.346455 0.0574872 0
0.342806 0.0634815 0
0.344808 0.0589718 0
0.347932 0.0541745 0
0.284471 0.0402829 0
0.334707 0.0487569 0
0.348787 0.0510139 0
0.342578 0.0608784 0
0.226215 0.0245716 0
0.297246 0.0415483 0
0.212064 0.0117721 0
0.344475 0.0558979 0
0.23148 0.0259758 0
0.195784 0.00117472 0
0.342265 0.0574283 0
0.311613 0.0422736 0
0.239363 0.0275578 0
0.340017 0.0601173 0
0.215169 0.0147304 0
0.347379 0.0494438 0
0.348255 0.048035 0
0.344153 0.0530064 0
0.339969 0.0594675 0
0.339922 0.0588298 0
0.345557 0.0499663 0
0.339855 0.0579349 0
0.254183 0.0300894 0
0.322876 0.0423652 0
0.344751 0.0454486 0
0.339789 0.05706 0
0.341845 0.0530073 0
0.208641 0.00680099 0
0 0 0
0.339695 0.055847 0
0.343735 0.0493661 0
0.339602 0.0546683 0
0.346822 0.0451796 0
0.226925 0.0209728 0
0.123509 -0.00823517 0
0.332852 0.0414613 0
0.277488 0.0331712 0
0.22838 0.0213292 0
0.339471 0.0530612 0
0.229701 0.0216032 0
0.231705 0.0219801 0
0.339343 0.0515129 0
0.343346 0.045995 0
0.234137 0.0224375 0
0.216573 0.0123746 0
0.341312 0.0475689 0
0.339071 0.0401916 0
0.238519 0.0232403 0
0.33917 0.0494485 0
0.305325 0.0352135 0
0.243648 0.0241061 0
0.336477 0.0524181 0
0.221533 0.0148816 0
0.344647 0.0415768 0
0.345615 0.0401811 0
0.339002 0.0474821 0
0.336401 0.0512298 0
0.252151 0.0254023 0
0.342889 0.0419026 0
0.214255 0.00760624 0
0.336294 0.0496249 0
0.342754 0.0379679 0
0.209948 0.00450403 0
0.261222 0.0265129 0
0.338783 0.0449305 0
0.197588 -0.0017007 0
0.336148 0.0474763 0
0.227537 0.016716 0
0.340678 0.0411805 0
0.274348 0.027763 0
0.33858 0.0425326 0
0.228965 0.0168927 0
0.328321 0.0343528 0
0.342521 0.038168 0
0.164653 -0.00850544 0
0.218145 0.00956778 0
0.3438 0.0356613 0
0.335951 0.0446586 0
0.23131 0.0171045 0
0.286848 0.0284698 0
0.338326 0.0395091 0
0.23637 0.0176368 0
0.332915 0.0453895 0
0.204346 -0.000346812 0
0.332888 0.0448429 0
0.301793 0.0286476 0
0.335697 0.0410697 0
0.332861 0.0443076 0
0.332826 0.0435731 0
0.211129 0.00212315 0
0.342052 0.0336912 0
0.332791 0.0428564 0
0.343078 0.0325627 0
0.3381 0.0366979 0
0.247183 0.0187319 0
0.332744 0.0418778 0
0.314078 0.0282486 0
0.339964 0.0339672 0
0.332699 0.040928 0
0.339515 0.030394 0
0.228033 0.0126238 0
0.228441 0.0126162 0
0.332637 0.0396457 0
0.335382 0.0366498 0
0.219559 0.00677961 0
0.228847 0.0126033 0
0.229467 0.0125851 0
0.332578 0.0384098 0
0.337823 0.0332223 0
0.266924 0.0202724 0
0.230131 0.0125713 0
0.325445 0.0268346 0
0.341491 0.0295403 0
0.231347 0.012609 0
0.216315 0.00305373 0
0.3325 0.0367685 0
0.199061 -0.00460185 0
0.2328 0.0126853 0
0.332426 0.0351975 0
0.235514 0.0129024 0
0.223554 0.007381 0
0.0676281 -0.00640403 0
0.337542 0.0299357 0
0.212166 -0.000260058 0
0.33276 0.0251525 0
0.329116 0.0376768 0
0.335005 0.0313498 0
0.238967 0.0132163 0
0.332329 0.03315 0
0.294352 0.0211428 0
0.329077 0.036679 0
0.124596 -0.0096155 0
0.245043 0.0137461 0
0.329024 0.0353688 0
0.339131 0.025702 0
0.332235 0.0311921 0
0.340234 0.0244912 0
0.328952 0.0336447 0
0.221026 0.003455 0
0.252232 0.0142474 0
0.228369 0.00782843 0
0.337187 0.0258648 0
0.337088 0.0224603 0
0.228965 0.00772995 0
0.332114 0.0286773 0
0.328856 0.0313942 0
0.229854 0.00756996 0
0.263393 0.0147674 0
0.334534 0.0249693 0
0.319896 0.0193333 0
0.231353 0.0073514 0
0.213064 -0.00275047 0
0.331984 0.0262451 0
0.274959 0.0148462 0
0.336782 0.021949 0
0.32873 0.028495 0
0.338274 0.0197191 0
0.200282 -0.00752136 0
0.325126 0.0306294 0
0.234425 0.00713062 0
0.325121 0.0301654 0
0.325115 0.0297096 0
0.325109 0.0291034 0
0.331804 0.0231393 0
0.206704 -0.00610195 0
0.218112 -0.00200868 0
0.289788 0.0143089 0
0.325102 0.0285083 0
0.222245 0.000140745 0
0.32857 0.0247964 0
0.325094 0.0277112 0
0.241507 0.00701457 0
0.325085 0.0269296 0
0.228686 0.00323261 0
0.228902 0.00316032 0
0.229131 0.00309083 0
0.336148 0.0171294 0
0.337296 0.016103 0
0.325073 0.025883 0
0.331596 0.0201129 0
0.302817 0.0131712 0
0.229464 0.00298369 0
0.229801 0.00287568 0
0.325059 0.0248566 0
0.213801 -0.00524377 0
0.333113 0.014166 0
0.333817 0.0172286 0
0.230306 0.0027219 0
0.32504 0.0234888 0
0.230807 0.00256162 0
0.328347 0.0200911 0
0.256473 0.00690264 0
0.2316 0.00235138 0
0.325016 0.0221446 0
0.315685 0.0109269 0
0.225642 -0.00105625 0
0.331293 0.0162877 0
0.232454 0.0021425 0
0 0 0
0.335399 0.0125161 0
0.324974 0.020365 0
0.234035 0.00191991 0
0.20119 -0.010457 0
0.320743 0.0228732 0
0.166226 -0.0131164 0
0.324925 0.0186121 0
0.223307 -0.00379043 0
0.236025 0.00173854 0
0.320735 0.0219653 0
0.32442 0.0085184 0
0.125269 -0.0111382 0
0.330944 0.0125726 0
0.320722 0.0208003 0
0.214402 -0.00786209 0
0.281188 0.00606051 0
0.327988 0.0141556 0
0.239769 0.00157247 0
0.32484 0.0163155 0
0.22925 -0.00192467 0
0.320704 0.01928 0
0.229537 -0.0021072 0
0.230022 -0.00236245 0
0.244649 0.00143523 0
0.333792 0.00692411 0
0.324741 0.0140569 0
0.332644 0.00799385 0
0.320674 0.0172805 0
0.219456 -0.0077053 0
0.230782 -0.00272887 0
0.329814 0.00503862 0
0.330433 0.00798516 0
0.252851 0.00113597 0
0.320623 0.0146506 0
0.324592 0.0111394 0
0.231905 -0.00327506 0
0.308488 0.0027958 0
0.214826 -0.0104853 0
0.208091 -0.0119432 0
0.224033 -0.00770383 0
0.32738 0.00683174 0
0.262377 0.000517367 0
0.201846 -0.0134119 0
0.316253 0.0154433 0
0.233772 -0.00406745 0
0.324419 0.00828364 0
0.316256 0.0149803 0
0.320532 0.011213 0
0.33138 0.00166831 0
0.316257 0.0145218 0
0.329845 0.00355632 0
0.316259 0.0139346 0
0.31626 0.0133528 0
0.316259 0.0125936 0
0.229612 -0.00694569 0
0.275676 -0.000864818 0
0.229766 -0.00703807 0
0.229918 -0.00713139 0
0.316256 0.0118411 0
0.230128 -0.00727212 0
0.237783 -0.00517425 0
0.324158 0.00467365 0
0.230337 -0.00741427 0
0.316249 0.0108488 0
0.230631 -0.00762384 0
0.320367 0.00678153 0
0.31624 0.00986557 0
0.230926 -0.00783588 0
0.23134 -0.0081428 0
0.215097 -0.0132639 0
0.288522 -0.00293527 0
0.316223 0.00856584 0
0.3302 -0.00262386 0
0.328956 -0.0017911 0
0.231753 -0.00845411 0
0.323856 0.00115675 0
0.316201 0.00727979 0
0.324571 -0.00400575 0
0.227051 -0.0106447 0
0.232333 -0.00889477 0
0.326349 -0.00194742 0
0.247278 -0.00682304 0
0.316166 0.00558698 0
0.224499 -0.0122479 0
0.232905 -0.00934552 0
0.202195 -0.0163769 0
0.320069 0.00118518 0
0.125533 -0.0126396 0
0.316123 0.00391665 0
0.302403 -0.00628764 0
0.220089 -0.0141557 0
0.233841 -0.00992868 0
0.323412 -0.00318767 0
0.310957 0.00681082 0
0.327919 -0.00691065 0
0.316056 0.00174128 0
0.310959 0.00583377 0
0.234876 -0.0105128 0
0.21518 -0.0160471 0
0.310958 0.004623 0
0.22992 -0.0126394 0
0.230154 -0.0128335 0
0.315975 -0.000398589 0
0.312683 -0.00977605 0
0.266399 -0.00966057 0
0.310951 0.00308663 0
0.230507 -0.0131228 0
0.236849 -0.0112278 0
0.3229 -0.00740138 0
0.23102 -0.0135478 0
0.208514 -0.0178777 0
0.319546 -0.00571806 0
0.310934 0.0011101 0
0.315848 -0.00314265 0
0.239398 -0.0119482 0
0.231743 -0.0141654 0
0.166355 -0.0179287 0
0.325721 -0.0129533 0
0.224533 -0.0167737 0
0.310897 -0.00144399 0
0.324688 -0.0121966 0
0.202269 -0.0193749 0
0.315699 -0.00583302 0
0.319827 -0.014365 0
0.232725 -0.0150585 0
0.244241 -0.0129473 0
0.215075 -0.0190167 0
0.322175 -0.0124868 0
0.31082 -0.00473207 0
0 0 0
0.315473 -0.00922216 0
0.293022 -0.0148444 0
0.305518 -0.00169275 0
0.234106 -0.0163335 0
0.250562 -0.0141824 0
0.30552 -0.00221489 0
0.305522 -0.00273333 0
0.0676194 -0.00765765 0
0.22964 -0.0183165 0
0.305522 -0.00336647 0
0.318659 -0.0140192 0
0.229765 -0.0184196 0
0.229889 -0.018523 0
0.305522 -0.00399494 0
0.322378 -0.0185219 0
0.230061 -0.0186767 0
0.310674 -0.008922 0
0.315209 -0.0125317 0
0.305521 -0.00478218 0
0.230231 -0.0188313 0
0.321348 -0.0173801 0
0.23047 -0.0190576 0
0.305517 -0.0055631 0
0.230705 -0.019286 0
0.260507 -0.0163134 0
0.305511 -0.00655905 0
0.236347 -0.0181768 0
0.231036 -0.019616 0
0.219751 -0.0214372 0
0.125335 -0.0143344 0
0.305502 -0.00754601 0
0.214773 -0.021989 0
0.231361 -0.0199503 0
0.202044 -0.0223891 0
0.305486 -0.00881668 0
0.231806 -0.0204267 0
0.314821 -0.0166187 0
0.224143 -0.0219475 0
0.226746 -0.0215978 0
0.305466 -0.0100742 0
0.232239 -0.0209112 0
0.310407 -0.0141813 0
0.271578 -0.019248 0
0.305432 -0.0116954 0
0.321317 -0.0235975 0
0.232815 -0.0215881 0
0.320134 -0.0231477 0
0.207994 -0.0239129 0
0.240973 -0.0210483 0
0.312623 -0.02365 0
0.305392 -0.0132973 0
0.233372 -0.0222787 0
0.314374 -0.0205923 0
0.317186 -0.023712 0
0.305328 -0.0153522 0
0.234096 -0.0232198 0
0.284826 -0.0238165 0
0.214243 -0.0251735 0
0.299023 -0.011554 0
0.309938 -0.0206563 0
0.22883 -0.0246996 0
0.305251 -0.0173782 0
0.299025 -0.0126792 0
0.229016 -0.0249074 0
0.2348 -0.02418 0
0.229297 -0.0252172 0
0.201555 -0.0254295 0
0.299022 -0.014009 0
0.313728 -0.0253855 0
0.318731 -0.0286603 0
0.229702 -0.0256727 0
0.305132 -0.0199512 0
0.299012 -0.0156242 0
0.235748 -0.0254819 0
0.25226 -0.0258 0
0.230267 -0.0263339 0
0.223246 -0.0270914 0
0.29606 -0.0288235 0
0.298989 -0.0176261 0
0.304993 -0.0224809 0
0.231033 -0.0272824 0
0.236703 -0.0268373 0
0.312988 -0.0300312 0
0.298945 -0.0201376 0
0.213509 -0.028356 0
0.309141 -0.0284466 0
0.304784 -0.0256481 0
0.232046 -0.0286286 0
0.124675 -0.0159398 0
0.165043 -0.0230634 0
0.315361 -0.0348861 0
0.23871 -0.028602 0
0.218138 -0.0295958 0
0.298861 -0.0233015 0
0.314875 -0.0347637 0
0.305347 -0.035104 0
0.200783 -0.0284879 0
0.304541 -0.0287515 0
0.233345 -0.0305249 0
0.311962 -0.0355186 0
0.227396 -0.0310017 0
0.292237 -0.0213202 0
0.227491 -0.0311103 0
0.227587 -0.0312193 0
0.241535 -0.0304698 0
0.206563 -0.0300488 0
0.292238 -0.02193 0
0.273539 -0.0333372 0
0.227721 -0.0313802 0
0.298711 -0.027274 0
0.227853 -0.0315419 0
0.292239 -0.0225366 0
0.228041 -0.0317773 0
0.292239 -0.0232424 0
0.228227 -0.0320143 0
0.304185 -0.0325701 0
0.292238 -0.0239443 0
0.228487 -0.0323548 0
0.292234 -0.0247836 0
0.228744 -0.0326984 0
0.212484 -0.0317722 0
0.292229 -0.0256178 0
0.221736 -0.0328493 0
0.309726 -0.0405335 0
0.229097 -0.0331854 0
0.307839 -0.0376 0
0.292219 -0.0266384 0
0.234885 -0.0332034 0
0.229444 -0.0336787 0
0.247168 -0.0331081 0
0.298446 -0.0322141 0
0.292207 -0.027652 0
0.303773 -0.0362983 0
0.310792 -0.0408006 0
0.224034 -0.0338317 0
0 0 0
0.229906 -0.0343697 0
0.292187 -0.0289121 0
0.199761 -0.0315658 0
0.230356 -0.0350738 0
0.292162 -0.0301624 0
0.292124 -0.0317305 0
0.230942 -0.0360501 0
0.254492 -0.0364757 0
0.303191 -0.0407996 0
0.292078 -0.033284 0
0.297996 -0.0382675 0
0.231494 -0.037055 0
0.236975 -0.0370108 0
0.309775 -0.0467554 0
0.211254 -0.0351799 0
0.292008 -0.0352357 0
0.309179 -0.0469268 0
0.295653 -0.0443814 0
0.123486 -0.0177811 0
0.232172 -0.0384338 0
0.225185 -0.0379525 0
0.291926 -0.0371658 0
0.225342 -0.0381715 0
0.302529 -0.0451777 0
0.225574 -0.0384974 0
0.284181 -0.0324849 0
0.264773 -0.0416597 0
0.305788 -0.0480733 0
0.225905 -0.0389753 0
0.232756 -0.0398589 0
0.291804 -0.0395798 0
0.284182 -0.0338216 0
0.21968 -0.0385462 0
0.198491 -0.0346499 0
0.226364 -0.0396668 0
0.284176 -0.0353326 0
0.20426 -0.0362707 0
0.29725 -0.0455492 0
0.214931 -0.0386172 0
0.291662 -0.0419616 0
0.226977 -0.0406556 0
0.233428 -0.0417452 0
0.28416 -0.0370872 0
0.307316 -0.0526841 0
0.241635 -0.042957 0
0.301614 -0.0503436 0
0.284129 -0.0391731 0
0.227763 -0.0420548 0
0.209667 -0.0388312 0
0.275288 -0.0479344 0
0.291455 -0.0449122 0
0.234004 -0.0436734 0
0.162255 -0.0284716 0
0.284072 -0.0416975 0
0.291217 -0.0478152 0
0.228704 -0.0440159 0
0.0656713 -0.00894542 0
0.300587 -0.0553526 0
0.283975 -0.0447863 0
0.196994 -0.0377416 0
0.234669 -0.0461867 0
0.296053 -0.0541143 0
0.290877 -0.051363 0
0.301747 -0.058459 0
0.222331 -0.0447563 0
0.222405 -0.0448692 0
0.222478 -0.0449822 0
0.222585 -0.0451492 0
0.28524 -0.056091 0
0.222691 -0.0453168 0
0.229765 -0.0467314 0
0.302653 -0.0596626 0
0.222843 -0.0455607 0
0.283809 -0.0485795 0
0.222993 -0.0458059 0
0.223204 -0.0461574 0
0.216863 -0.0447669 0
0.20788 -0.0424577 0
0.27573 -0.0436553 0
0.235338 -0.0487735 0
0.22341 -0.0465118 0
0.121809 -0.0194108 0
0.29049 -0.0548416 0
0.275731 -0.0443887 0
0.253701 -0.0525195 0
0.223693 -0.0470122 0
0.275731 -0.0451199 0
0.299176 -0.0611146 0
0.223967 -0.0475178 0
0.275728 -0.0459332 0
0.275724 -0.0467436 0
0.224332 -0.0482212 0
0.283533 -0.0532237 0
0.275716 -0.0476684 0
0.218485 -0.0470786 0
0.224681 -0.0489341 0
0.275706 -0.0485895 0
0.230908 -0.0504264 0
0.289949 -0.059021 0
0.201122 -0.0425496 0
0.27569 -0.0496659 0
0.19529 -0.0408197 0
0.291481 -0.0635295 0
0.237127 -0.0521984 0
0.225129 -0.0499105 0
0.27567 -0.0507375 0
0.294196 -0.0639421 0
0.225551 -0.0509015 0
0.275642 -0.0520152 0
0.297576 -0.0666941 0
0 0 0
0.275608 -0.0532861 0
0.283083 -0.0588585 0
0.289336 -0.0631027 0
0.22606 -0.0522407 0
0.275559 -0.0548239 0
0.205677 -0.046319 0
0.239971 -0.0559862 0
0.275502 -0.0563518 0
0.226535 -0.0536033 0
0.209884 -0.0483744 0
0.231988 -0.0554141 0
0.275421 -0.058216 0
0.218547 -0.0520558 0
0.218683 -0.0522814 0
0.21888 -0.0526164 0
0.213511 -0.0508571 0
0.288501 -0.0679145 0
0.227088 -0.0554208 0
0.293936 -0.0716845 0
0.219158 -0.0531061 0
0.275327 -0.0600653 0
0.273052 -0.0660956 0
0.19338 -0.0438819 0
0.282366 -0.0655975 0
0.21954 -0.0538119 0
0.295315 -0.0730623 0
0.275195 -0.0623263 0
0.227563 -0.0572911 0
0.220052 -0.0548154 0
0.26581 -0.0562654 0