# vtk DataFile Version 3.0
File generated from DClib
ASCII

DATASET UNSTRUCTURED_GRID
POINTS 1909 float
50 0 0 
48.75 0 0 
50 1.66667 0 
47.5 0 0 
50 3.33333 0 
46.25 0 0 
50 5 0 
45 0 0 
43.75 0 0 
50 6.66667 0 
43 2 0 
42.5 0 0 
50 8.33333 0 
43 4.66667 0 
41.25 0 0 
41.075 2 0 
50 10 0 
40 0 0 
43 7.33333 0 
39.15 2 0 
38.75 0 0 
43 10 0 
37.5 0 0 
37.225 2 0 
36.25 0 0 
36 4 0 
35.3 2 0 
36 5 0 
35 0 0 
35.325 4 0 
36 6 0 
36 7 0 
34.65 4 0 
36 8 0 
33.75 0 0 
33.975 4 0 
36 9 0 
33.375 2 0 
33.3 4 0 
36 10 0 
32.5 0 0 
32.625 4 0 
33 6 0 
31.95 4 0 
33 7.45455 0 
31.45 2 0 
31.25 0 0 
31.95 6 0 
33 8.79545 0 
31.275 4 0 
33 10 0 
30.6 4 0 
30 0 0 
30.9 6 0 
29.925 4 0 
29.525 2 0 
29.85 6 0 
29.25 4 0 
28.75 0 0 
30 8 0 
30 8.45455 0 
28.575 4 0 
29.625 8 0 
30 8.90909 0 
28.8 6 0 
30 9.25 0 
29.782 8.90909 0 
30 9.59091 0 
29.9487 9.59091 0 
29.25 8 0 
29.7462 9.25 0 
30 9.79545 0 
29.897 9.59091 0 
29.564 8.90909 0 
29.9547 9.79545 0 
29.3462 8.45455 0 
29.84 9.59091 0 
30 10 0 
29.8975 9.79545 0 
29.9882 10 0 
29.9902 10.0098 0 
29.7827 9.59091 0 
29.9765 10 0 
29.9804 10.0196 0 
29.9667 10.0098 0 
29.9591 10 0 
29.9686 10.0196 0 
29.9659 10.0341 0 
29.9569 10.0196 0 
29.9418 10 0 
29.9395 10.0196 0 
29.9515 10.0485 0 
29.932 10.0098 0 
29.9424 10.0341 0 
29.8241 9.79545 0 
29.7181 9.59091 0 
29.9166 10 0 
29.9397 10.0485 0 
29.9222 10.0196 0 
29.9279 10.0485 0 
29.9305 10.0695 0 
29.8914 10 0 
29.9077 10.0341 0 
27.9 4 0 
29.897 10.0196 0 
29.9106 10.0485 0 
29.8817 10.0098 0 
29.907 10.0695 0 
29.8933 10.0485 0 
29.9095 10.0905 0 
29.8719 10.0196 0 
27.6 2 0 
29.8556 10 0 
29.8978 10.0905 0 
29.6531 9.59091 0 
29.3437 8.90909 0 
27.5 0 0 
29.8681 10.0485 0 
29.886 10.0905 0 
29.8574 10.0341 0 
29.4839 9.25 0 
29.8723 10.0695 0 
29.7289 9.79545 0 
29.836 10.0196 0 
29.8687 10.0905 0 
29.8197 10 0 
29.8797 10.1203 0 
29.843 10.0485 0 
29.8513 10.0905 0 
29.81 10.0098 0 
29.8561 10.1203 0 
29.8002 10.0196 0 
29.8221 10.0695 0 
29.8072 10.0485 0 
29.8262 10.0905 0 
29.5782 9.59091 0 
29.8498 10.1502 0 
29.7695 10 0 
29.7858 10.0341 0 
29.838 10.1502 0 
29.8215 10.1203 0 
29.8011 10.0905 0 
29.8262 10.1502 0 
29.7714 10.0485 0 
28.875 8 0 
29.75 10.0196 0 
29.8089 10.1502 0 
29.7654 10.0905 0 
29.7193 10 0 
29.7916 10.1502 0 
29.7505 10.0695 0 
29.8079 10.1921 0 
29.7713 10.1203 0 
29.7096 10.0098 0 
29.6047 9.79545 0 
29.503 9.59091 0 
29.7213 10.0485 0 
29.7665 10.1502 0 
29.6999 10.0196 0 
29.7844 10.1921 0 
29.7296 10.0905 0 
29.6856 10.0341 0 
29.7414 10.1502 0 
29.7497 10.1921 0 
29.6503 10 0 
29.7661 10.2339 0 
29.6712 10.0485 0 
29.6999 10.1203 0 
29.7543 10.2339 0 
29.6796 10.0905 0 
29.7057 10.1502 0 
29.7425 10.2339 0 
29.1235 8.90909 0 
29.6309 10.0196 0 
29.6504 10.0695 0 
29.4146 9.59091 0 
29.7252 10.2339 0 
29.6996 10.1921 0 
29.6701 10.1502 0 
29.7079 10.2339 0 
29.6296 10.0905 0 
29.5813 10 0 
29.6023 10.0485 0 
29.5716 10.0098 0 
29.6828 10.2339 0 
29.7086 10.2914 0 
29.2101 9.25 0 
29.562 10.0196 0 
29.6201 10.1502 0 
29.6578 10.2339 0 
29.4428 9.79545 0 
29.5999 10.1203 0 
29.6849 10.2914 0 
29.6283 10.1921 0 
29.5477 10.0341 0 
29.3259 9.59091 0 
29.5608 10.0905 0 
29.5335 10.0485 0 
29.6221 10.2339 0 
29.6503 10.2914 0 
29.5702 10.1502 0 
29.4881 10 0 
29.5128 10.0695 0 
29.6511 10.3489 0 
29.5866 10.2339 0 
29.6392 10.3489 0 
29.4689 10.0196 0 
29.6002 10.2914 0 
29.6273 10.3489 0 
29.4921 10.0905 0 
29.61 10.3489 0 
29.5286 10.1921 0 
29.5016 10.1502 0 
29.5368 10.2339 0 
29.5926 10.3489 0 
29.4405 10.0485 0 
29.2199 9.59091 0 
29.4626 10.1203 0 
29.3949 10 0 
28.9 8.90909 0 
29.5676 10.3489 0 
29.5291 10.2914 0 
29.3853 10.0098 0 
28.6923 8.45455 0 
29.487 10.2339 0 
29.5426 10.3489 0 
29.3758 10.0196 0 
29.5734 10.4266 0 
29.4331 10.1502 0 
29.3993 10.0905 0 
28.5 8 0 
29.3617 10.0341 0 
29.5496 10.4266 0 
29.5071 10.3489 0 
29.2327 9.79545 0 
29.3475 10.0485 0 
29.1136 9.59091 0 
29.4187 10.2339 0 
29.5148 10.4266 0 
29.4716 10.3489 0 
29.3918 10.1921 0 
29.3271 10.0695 0 
29.4298 10.2914 0 
29.2714 10 0 
29.3406 10.1502 0 
28.9208 9.25 0 
29.3066 10.0905 0 
29.4648 10.4266 0 
29.422 10.3489 0 
29.4958 10.5042 0 
29.2524 10.0196 0 
27.75 6 0 
29.3504 10.2339 0 
29.4837 10.5042 0 
29.4718 10.5042 0 
29.2774 10.1203 0 
29.4543 10.5042 0 
29.3724 10.3489 0 
29.2244 10.0485 0 
29.4369 10.5042 0 
29.3938 10.4266 0 
28.9853 9.59091 0 
29.2481 10.1502 0 
28.6766 8.90909 0 
29.4119 10.5042 0 
29.2934 10.2914 0 
27.225 4 0 
29.148 10 0 
29.2582 10.2339 0 
29.1837 10.0905 0 
29.3869 10.5042 0 
29.1385 10.0098 0 
29.3044 10.3489 0 
29.1291 10.0196 0 
29.2072 10.1921 0 
29.3514 10.5042 0 
29.1152 10.0341 0 
29.3929 10.6071 0 
29.2949 10.4266 0 
29.1013 10.0485 0 
29.3686 10.6071 0 
29.316 10.5042 0 
29.2364 10.3489 0 
28.9623 9.79545 0 
29.1257 10.1502 0 
29.1662 10.2339 0 
29.0811 10.0695 0 
28.8566 9.59091 0 
29.3336 10.6071 0 
29.2666 10.5042 0 
29.0609 10.0905 0 
28.9875 10 0 
29.2835 10.6071 0 
29.1448 10.3489 0 
29.0321 10.1203 0 
29.2173 10.5042 0 
29.1098 10.2914 0 
28.125 8 0 
28.9688 10.0196 0 
29.1594 10.4266 0 
28.611 9.25 0 
29.29 10.71 0 
28.4486 8.90909 0 
29.0443 10.2339 0 
29.0033 10.1502 0 
29.2777 10.71 0 
28.9413 10.0485 0 
29.2128 10.6071 0 
29.2655 10.71 0 
29.1497 10.5042 0 
29.2478 10.71 0 
28.7003 9.59091 0 
29.0533 10.3489 0 
29.2303 10.71 0 
28.9629 10.1921 0 
28.9013 10.0905 0 
29.2051 10.71 0 
29.0822 10.5042 0 
29.1801 10.71 0 
28.827 10 0 
29.1144 10.6071 0 
28.8177 10.0098 0 
28.9225 10.2339 0 
28.8085 10.0196 0 
29.1447 10.71 0 
28.7949 10.0341 0 
28.8443 10.1502 0 
28.977 10.4266 0 
28.9322 10.3489 0 
29.1094 10.71 0 
28.7813 10.0485 0 
28.9912 10.5042 0 
29.1562 10.8438 0 
28.5436 9.59091 0 
28.7615 10.0695 0 
28.8669 10.2914 0 
29.1313 10.8438 0 
28.6184 9.79545 0 
29.0602 10.71 0 
28.2207 8.90909 0 
28.7418 10.0905 0 
28.0378 8.45455 0 
28.9798 10.6071 0 
29.0958 10.8438 0 
29.0112 10.71 0 
28.9005 10.5042 0 
28.7136 10.1203 0 
28.7644 10.2339 0 
28.8113 10.3489 0 
29.0454 10.8438 0 
28.6223 10 0 
28.6854 10.1502 0 
28.2746 9.25 0 
28.9441 10.71 0 
28.6042 10.0196 0 
27.75 8 0 
28.9747 10.8438 0 
28.6459 10.1921 0 
28.5773 10.0485 0 
29.0225 10.9775 0 
28.3532 9.59091 0 
28.7804 10.5042 0 
28.736 10.4266 0 
28.8772 10.71 0 
29.0097 10.9775 0 
28.9971 10.9775 0 
28.799 10.6071 0 
28.9791 10.9775 0 
28.5384 10.0905 0 
28.6064 10.2339 0 
28.6543 10.3489 0 
28.9611 10.9775 0 
28.8769 10.8438 0 
27.9867 8.90909 0 
26.25 0 0 
28.9358 10.9775 0 
28.7871 10.71 0 
28.9106 10.9775 0 
28.6607 10.5042 0 
28.4177 10 0 
26.55 4 0 
28.552 10.2914 0 
28.483 10.1502 0 
28.4087 10.0098 0 
28.8751 10.9775 0 
28.3998 10.0196 0 
28.3866 10.0341 0 
28.8399 10.9775 0 
28.6974 10.71 0 
28.3735 10.0485 0 
28.1625 9.59091 0 
28.7436 10.8438 0 
28.4976 10.3489 0 
28.3543 10.0695 0 
28.791 10.9775 0 
28.4052 10.2339 0 
28.3352 10.0905 0 
28.8519 11.1481 0 
28.1869 9.79545 0 
28.5607 10.6071 0 
28.5053 10.5042 0 
28.7423 10.9775 0 
28.8258 11.1481 0 
28.308 10.1203 0 
28.5787 10.71 0 
27.904 9.25 0 
28.7893 11.1481 0 
28.424 10.4266 0 
27.7528 8.90909 0 
28.2807 10.1502 0 
28.6758 10.9775 0 
27.375 8 0 
28.7383 11.1481 0 
28.1619 10 0 
28.5649 10.8438 0 
28.2425 10.1921 0 
28.6096 10.9775 0 
28.1444 10.0196 0 
28.298 10.3489 0 
28.4605 10.71 0 
26.7 6 0 
27.9315 9.59091 0 
28.3503 10.5042 0 
28.6676 11.1481 0 
28.1187 10.0485 0 
28.2042 10.2339 0 
28.5207 10.9775 0 
28.0813 10.0905 0 
28.6814 11.3186 0 
27.3818 8.45455 0 
28.6679 11.3186 0 
28.1516 10.2914 0 
28.5703 11.1481 0 
28.6544 11.3186 0 
28.6358 11.3186 0 
27.5109 8.90909 0 
28.3072 10.71 0 
28.6173 11.3186 0 
28.2524 10.6071 0 
28.4322 10.9775 0 
28.028 10.1502 0 
28.5915 11.3186 0 
28.0989 10.3489 0 
28.33 10.8438 0 
28.5658 11.3186 0 
28.153 10.5042 0 
27.9061 10 0 
27.8975 10.0098 0 
28.5303 11.3186 0 
28.4384 11.1481 0 
27.7002 9.59091 0 
27.889 10.0196 0 
27.8765 10.0341 0 
28.4949 11.3186 0 
28.3154 10.9775 0 
27.9532 10.2339 0 
27.8639 10.0485 0 
28.0276 10.4266 0 
28.1544 10.71 0 
27.8457 10.0695 0 
27.4909 9.25 0 
28.4463 11.3186 0 
27 8 0 
27.8275 10.0905 0 
28.3979 11.3186 0 
27.8015 10.1203 0 
27.6542 9.79545 0 
25.675 2 0 
28.1991 10.9775 0 
27.2691 8.90909 0 
27.9563 10.5042 0 
28.4682 11.5318 0 
28.2625 11.1481 0 
27.7755 10.1502 0 
28.3322 11.3186 0 
27.8502 10.3489 0 
28.4401 11.5318 0 
25.875 4 0 
27.7391 10.1921 0 
28.4019 11.5318 0 
28.0268 10.8438 0 
28.2668 11.3186 0 
27.9602 10.71 0 
28.3498 11.5318 0 
27.4223 9.59091 0 
27.7026 10.2339 0 
27.5927 10 0 
28.0486 10.9775 0 
27.8616 10.6071 0 
27.5762 10.0196 0 
28.1794 11.3186 0 
28.2786 11.5318 0 
27.5519 10.0485 0 
27.6524 10.2914 0 
28.0319 11.1481 0 
27.7108 10.5042 0 
27.5167 10.0905 0 
27.0169 8.90909 0 
28.0924 11.3186 0 
27.6021 10.3489 0 
27.8988 10.9775 0 
28.1818 11.5318 0 
27.7667 10.71 0 
26.625 8 0 
28.255 11.745 0 
27.4664 10.1502 0 
28.2402 11.745 0 
28.2256 11.745 0 
28.2059 11.745 0 
27.978 11.3186 0 
26.7234 8.45455 0 
27.0259 9.25 0 
27.5342 10.4266 0 
28.1863 11.745 0 
27.1442 9.59091 0 
28.0516 11.5318 0 
28.1598 11.745 0 
27.3959 10.2339 0 
28.1334 11.745 0 
27.2793 10 0 
27.2714 10.0098 0 
27.2635 10.0196 0 
27.7086 10.9775 0 
27.6431 10.8438 0 
28.0975 11.745 0 
27.8643 11.3186 0 
27.4661 10.5042 0 
27.2518 10.0341 0 
27.2401 10.0485 0 
28.0617 11.745 0 
26.7648 8.90909 0 
27.5255 10.71 0 
27.7353 11.1481 0 
27.2231 10.0695 0 
28.0133 11.745 0 
27.2061 10.0905 0 
27.8791 11.5318 0 
27.2986 10.3489 0 
27.1818 10.1203 0 
27.9651 11.745 0 
27.3758 10.6071 0 
27.0077 9.79545 0 
27.7174 11.3186 0 
27.1576 10.1502 0 
25 0 0 
27.5193 10.9775 0 
27.9003 11.745 0 
27.1236 10.1921 0 
26.25 8 0 
27.9939 12.0061 0 
25.65 6 0 
27.8359 11.745 0 
26.8136 9.59091 0 
27.0896 10.2339 0 
27.9626 12.0061 0 
27.2853 10.71 0 
25.2 4 0 
27.5713 11.3186 0 
27.9218 12.0061 0 
26.4998 8.90909 0 
27.167 10.5042 0 
27.6541 11.5318 0 
27.0427 10.2914 0 
27.7503 11.745 0 
26.9033 10 0 
27.8677 12.0061 0 
26.8882 10.0196 0 
26.8659 10.0485 0 
26.9958 10.3489 0 
27.2836 10.9775 0 
27.6652 11.745 0 
27.3609 11.1481 0 
27.7955 12.0061 0 
26.499 9.25 0 
[...]
POINT_DATA 1909
SCALARS phi float 1
LOOKUP_TABLE default
VECTORS Displacement float
0 0 0
0 0 0
0 -0.00199684 0
0 0 0
0 -0.00103644 0
0 0 0
0 0.00257324 0
0 0 0
0 0 0
0 0.00854196 0
0.0171675 -0.000704132 0
0 0 0
0 0.0166157 0
0.0324816 0.00613127 0
0 0 0
0.0232454 -0.000680882 0
0 0.0259908 0
0 0 0
0.0427912 0.0194658 0
0.0297071 -0.000799303 0
0 0 0
0.048264 0.037178 0
0 0 0
0.0363835 -0.0011291 0
0 0 0
0.0681039 0.00460477 0
0.0429056 -0.00163475 0
0.0805422 0.00998657 0
0 0 0
0.07303 0.00424706 0
0.0891783 0.0167873 0
0.0946578 0.0244916 0
0.0777324 0.00386063 0
0.0981301 0.032338 0
0 0 0
0.0824089 0.00326545 0
0.100879 0.0404867 0
0.0489414 -0.00229212 0
0.0868516 0.00262843 0
0.103472 0.0497536 0
0 0 0
0.0910593 0.00188093 0
0.11734 0.014344 0
0.0949872 0.00109284 0
0.12901 0.0279984 0
0.0541964 -0.00307482 0
0 0 0
0.127039 0.0106939 0
0.134299 0.0459726 0
0.0986388 0.000189388 0
0.135515 0.070578 0
0.101968 -0.000759551 0
0 0 0
0.134806 0.00730801 0
0.104995 -0.00178886 0
0.0584205 -0.00396065 0
0.141289 0.00376195 0
0.107679 -0.00287635 0
0 0 0
0.166969 0.0161426 0
0.17228 0.0201142 0
0.110038 -0.004003 0
0.170185 0.0135855 0
0.177752 0.025005 0
0.146583 -2.6093e-05 0
0.181805 0.0321275 0
0.180251 0.0224427 0
0.185981 0.0422725 0
0.186733 0.0398377 0
0.173014 0.0110226 0
0.185053 0.0271909 0
0.186899 0.0492343 0
0.187458 0.0378697 0
0.182468 0.0201774 0
0.187629 0.0467173 0
0.178316 0.0147221 0
0.188159 0.0359268 0
0.187206 0.0570384 0
0.188613 0.0438933 0
0.187552 0.0572376 0
0.235396 0.0744999 0
0.188806 0.0342436 0
0.187951 0.0572175 0
0.267384 0.0853067 0
0.234296 0.0738165 0
0.188576 0.0571198 0
0.26615 0.0846025 0
0.2698 0.0849521 0
0.26476 0.083703 0
0.189257 0.0568731 0
0.262414 0.0824187 0
0.269827 0.0841879 0
0.232391 0.0722084 0
0.268665 0.0834392 0
0.189958 0.0409188 0
0.189446 0.0325565 0
0.190261 0.0561418 0
0.269734 0.0835162 0
0.260064 0.0809793 0
0.269651 0.082872 0
0.270086 0.0833115 0
0.191296 0.0553623 0
0.266063 0.0812186 0
0.112054 -0.00521287 0
0.256872 0.0787596 0
0.269351 0.0819977 0
0.230049 0.0690686 0
0.269917 0.0820484 0
0.268912 0.0810014 0
0.269676 0.0822775 0
0.253864 0.0765316 0
0.0613996 -0.00492416 0
0.192699 0.0537815 0
0.269615 0.0816319 0
0.190025 0.0310309 0
0.184574 0.0180994 0
0 0 0
0.267981 0.0793945 0
0.269536 0.0809539 0
0.261828 0.0774497 0
0.187887 0.0235499 0
0.26954 0.0799809 0
0.191718 0.0378374 0
0.250198 0.073179 0
0.269397 0.0798753 0
0.194064 0.0522797 0
0.269185 0.0807754 0
0.266662 0.0776251 0
0.269249 0.0787381 0
0.227513 0.0640572 0
0.269036 0.0792946 0
0.246792 0.0700172 0
0.268407 0.0765292 0
0.264549 0.0748501 0
0.268988 0.0770248 0
0.190655 0.0294697 0
0.268563 0.0790742 0
0.195794 0.049939 0
0.255935 0.0714978 0
0.26847 0.0782871 0
0.268777 0.0769536 0
0.268696 0.0752767 0
0.268375 0.0774826 0
0.262123 0.0720744 0
0.175741 0.00848577 0
0.242761 0.0656833 0
0.268228 0.0762796 0
0.268096 0.0728168 0
0.197361 0.0477662 0
0.268075 0.0750689 0
0.265638 0.071358 0
0.267642 0.0765254 0
0.26835 0.0734707 0
0.224771 0.0573796 0
0.193853 0.0346271 0
0.191235 0.0280092 0
0.258682 0.0681662 0
0.267852 0.073315 0
0.239213 0.0617784 0
0.267468 0.0748735 0
0.267278 0.0703842 0
0.248477 0.0635962 0
0.267629 0.071591 0
0.267198 0.0724508 0
0.199234 0.0449628 0
0.266729 0.0739053 0
0.255179 0.0644913 0
0.267532 0.0686782 0
0.266631 0.073068 0
0.265776 0.0670988 0
0.267313 0.0692029 0
0.266532 0.0722402 0
0.186478 0.0160549 0
0.235149 0.0569258 0
0.260532 0.0644284 0
0.19193 0.0264874 0
0.266389 0.0710375 0
0.266795 0.0690644 0
0.267015 0.0669296 0
0.266248 0.06986 0
0.263882 0.0639451 0
0.200808 0.042369 0
0.250602 0.0597663 0
0.22182 0.0497042 0
0.26605 0.0681996 0
0.265504 0.070321 0
0.190491 0.0203049 0
0.23181 0.052689 0
0.26652 0.0639512 0
0.265858 0.0665997 0
0.196267 0.0312874 0
0.265575 0.0626095 0
0.26533 0.0687202 0
0.266246 0.0646228 0
0.240039 0.0544903 0
0.192631 0.0250769 0
0.260873 0.0598987 0
0.246341 0.0555086 0
0.265592 0.0644246 0
0.265077 0.066464 0
0.265942 0.061181 0
0.202597 0.0394495 0
0.252854 0.0560738 0
0.264304 0.0668832 0
0.265337 0.062371 0
0.26422 0.0661156 0
0.228058 0.0478427 0
0.264722 0.0634083 0
0.264137 0.0653649 0
0.25757 0.0561244 0
0.264018 0.0642887 0
0.265508 0.0591709 0
0.264798 0.0577099 0
0.265002 0.0596763 0
0.263902 0.0632457 0
0.24113 0.0504408 0
0.193475 0.0235354 0
0.261249 0.055424 0
0.203998 0.0367129 0
0.188271 0.0140232 0
0.263739 0.0617889 0
0.264252 0.0594633 0
0.218626 0.0417699 0
0.183236 0.00964216 0
0.264695 0.0571949 0
0.263582 0.0603939 0
0.225138 0.043657 0
0.262894 0.0625724 0
0.263266 0.0544758 0
0.252928 0.0515015 0
0.178176 0.00587737 0
0.231433 0.0450774 0
0.262746 0.0611802 0
0.263368 0.058504 0
0.198826 0.0277096 0
0.236616 0.0459915 0
0.194352 0.0220861 0
0.264262 0.0540593 0
0.262536 0.0592474 0
0.263166 0.0567213 0
0.264017 0.0528494 0
0.243096 0.0468718 0
0.263671 0.0546436 0
0.205529 0.0337911 0
0.260582 0.05053 0
0.192892 0.0170859 0
0.248312 0.0472869 0
0.262249 0.05665 0
0.262896 0.0543876 0
0.261477 0.0585915 0
0.221868 0.0390541 0
0.150613 -0.00399125 0
0.263805 0.0512135 0
0.261414 0.0579484 0
0.261353 0.0573207 0
0.253647 0.0472459 0
0.261267 0.0564253 0
0.262642 0.0522176 0
0.231476 0.0409653 0
0.261182 0.0555574 0
0.26187 0.0532988 0
0.195383 0.0204215 0
0.257394 0.0468367 0
0.189933 0.0119973 0
0.261062 0.0543486 0
0.262996 0.0490345 0
0.113739 -0.00641657 0
0.206679 0.031011 0
0.262864 0.0477424 0
0.242477 0.0423207 0
0.260946 0.0531882 0
0.215349 0.0339394 0
0.262317 0.0494555 0
0.21942 0.0350607 0
0.260183 0.0457603 0
0.260785 0.0516122 0
0.223578 0.0359522 0
0.259908 0.0538734 0
0.261394 0.0491519 0
0.227333 0.0366221 0
0.259799 0.0527282 0
0.260629 0.0501151 0
0.26202 0.0469216 0
0.201354 0.0236334 0
0.252663 0.0424017 0
0.261511 0.0445318 0
0.232553 0.0374132 0
0.196442 0.0188267 0
0.259645 0.051147 0
0.260419 0.0481361 0
0.237209 0.0379195 0
0.20789 0.0279563 0
0.259434 0.049016 0
0.261632 0.0437656 0
0.242968 0.0382825 0
0.260219 0.0462753 0
0.261757 0.0427012 0
0.180394 0.00326778 0
0.216777 0.0306668 0
0.260823 0.0442194 0
0.195136 0.0137466 0
0.258293 0.049574 0
0.191483 0.00992615 0
0.258953 0.0406942 0
0.247672 0.0382917 0
0.258253 0.0490523 0
0.223047 0.0318374 0
0.259152 0.0462322 0
0.258213 0.0485418 0
0.259953 0.0438837 0
0.258156 0.0478171 0
0.197691 0.0169591 0
0.261232 0.0408974 0
0.258101 0.0471114 0
0.25243 0.0378238 0
0.231321 0.0328884 0
0.258022 0.0461279 0
0.259701 0.0416532 0
0.257945 0.0451765 0
0.208805 0.0250197 0
0.258786 0.042719 0
0.212743 0.0262654 0
0.255698 0.0370747 0
0.215055 0.0268499 0
0.257835 0.0438779 0
0.217537 0.0273294 0
0.241346 0.0334434 0
0.260181 0.0385473 0
0.260366 0.0374364 0
0.257728 0.0426315 0
0.219907 0.0277216 0
0.259379 0.0388574 0
0.256517 0.0446102 0
0.198925 0.0151359 0
0.223311 0.0282015 0
0.258065 0.0357045 0
0.256444 0.0436687 0
0.203705 0.0187634 0
0.257577 0.0409698 0
0.19292 0.00786501 0
0.226639 0.0285748 0
0.187162 0.00443162 0
0.258322 0.0384369 0
0.256341 0.0423739 0
0.257429 0.0393884 0
0.25908 0.0362742 0
0.231258 0.0289532 0
0.250755 0.0327874 0
0.259042 0.0342395 0
0.256199 0.0406212 0
0.209739 0.0216462 0
0.235561 0.0291304 0
0.197282 0.0102078 0
0.257227 0.0373324 0
0.213514 0.0226348 0
0.182292 0.000620996 0
0.256005 0.0383061 0
0.240914 0.0290938 0
0.21715 0.0232051 0
0.254745 0.0400636 0
0.200346 0.0129645 0
0.258697 0.0331047 0
0.259002 0.0322019 0
0.257029 0.0353939 0
0.254718 0.0396281 0
0.254692 0.0392008 0
0.257751 0.0333992 0
0.254654 0.0386011 0
0.222222 0.0237331 0
0.245379 0.0287741 0
0.256452 0.0304973 0
0.254617 0.0380147 0
0.255748 0.0353388 0
0.194239 0.00574281 0
0 0 0
0.254564 0.0372012 0
0.256767 0.0329452 0
0.254511 0.0364097 0
0.258295 0.0302229 0
0.210478 0.0183816 0
0.115078 -0.00773486 0
0.24994 0.0279724 0
0.229484 0.0241311 0
0.211783 0.018699 0
0.254436 0.0353295 0
0.212822 0.0188946 0
0.214125 0.0190789 0
0.254361 0.0342856 0
0.256514 0.0306622 0
0.215425 0.0192362 0
0.201685 0.0108183 0
0.255417 0.0316652 0
0.253051 0.0269493 0
0.217329 0.0194285 0
0.254256 0.0328902 0
0.238789 0.0240276 0
0.219256 0.0195847 0
0.252742 0.0348398 0
0.205861 0.012927 0
0.257108 0.0277039 0
0.257409 0.0268118 0
0.254153 0.0315542 0
0.252698 0.034037 0
0.222059 0.0197506 0
0.256198 0.0278647 0
0.199366 0.00641794 0
0.252635 0.0329497 0
0.255256 0.0253242 0
0.195438 0.00362624 0
0.224933 0.0198574 0
0.254012 0.0298119 0
0.183937 -0.00202384 0
0.252549 0.0314883 0
0.211146 0.0145352 0
0.255001 0.0272925 0
0.22899 0.0198946 0
0.253877 0.0281641 0
0.212472 0.0147074 0
0.247915 0.0227695 0
0.255912 0.0252803 0
0.153347 -0.00809041 0
0.203169 0.00824985 0
0.256075 0.023645 0
0.252431 0.0295599 0
0.21427 0.0148255 0
0.232945 0.0197807 0
0.253702 0.0260694 0
0.216996 0.0149224 0
0.250719 0.0300178 0
0.190201 -0.000805633 0
0.250703 0.0296421 0
0.237953 0.0193906 0
0.252273 0.027082 0
0.250688 0.0292736 0
0.250668 0.0287675 0
0.196512 0.00143302 0
0.255511 0.0221279 0
0.250648 0.0282725 0
0.255874 0.0213881 0
0.253537 0.0241029 0
0.221108 0.0149222 0
0.25062 0.0275948 0
0.242273 0.0187502 0
0.254469 0.0222435 0
0.250592 0.0269352 0
0.253444 0.0198985 0
0.21171 0.0108196 0
0.212112 0.0108204 0
0.250554 0.0260413 0
0.252064 0.0239957 0
0.20449 0.00569256 0
0.212526 0.0108204 0
0.213115 0.010804 0
0.250516 0.0251767 0
0.253327 0.0216472 0
0.227295 0.0146829 0
0.213742 0.0107905 0
0.246741 0.0175774 0
0.255052 0.0191674 0
0.214695 0.0107678 0
0.201302 0.00225902 0
0.250464 0.0240235 0
0.185278 -0.00468519 0
0.215688 0.0107382 0
0.250413 0.0229147 0
0.217154 0.0106783 0
0.207983 0.00614819 0
0.062993 -0.00597837 0
0.2531 0.0192988 0
0.197447 -0.000758964 0
0.249818 0.0162042 0
0.248542 0.0246016 0
0.251786 0.0202368 0
0.218674 0.0105975 0
0.250344 0.0214629 0
0.235711 0.0138529 0
0.248521 0.0238997 0
0.116073 -0.009005 0
0.220919 0.0104518 0
0.24849 0.0229742 0
0.253733 0.0163396 0
0.250273 0.0200645 0
0.254075 0.0155752 0
0.248448 0.021751 0
0.205836 0.00263246 0
0.223287 0.0102649 0
0.212223 0.00649513 0
0.252776 0.0163718 0
0.251957 0.0141844 0
0.212748 0.00639872 0
0.25018 0.0182573 0
0.248388 0.0201462 0
0.213584 0.00625959 0
0.226677 0.00991886 0
0.25139 0.0156392 0
0.244438 0.0118077 0
0.214914 0.00605506 0
0.198266 -0.00304025 0
0.250073 0.0164995 0
0.230134 0.00945529 0
0.2524 0.0135548 0
0.248304 0.0180655 0
0.252642 0.0121273 0
0.186388 -0.0073561 0
0.246254 0.0195666 0
0.217003 0.00573415 0
0.246251 0.0192324 0
0.246248 0.0189038 0
0.246245 0.0184669 0
0.249911 0.0142428 0
0.192349 -0.00608317 0
0.202975 -0.00237374 0
0.234588 0.00862286 0
0.246241 0.0180376 0
0.206941 -0.000419064 0
0.248185 0.0153853 0
0.246236 0.0174622 0
0.220208 0.00518674 0
0.246231 0.0168968 0
0.212683 0.00232293 0
0.212882 0.0022568 0
0.213096 0.00219442 0
0.251843 0.0100782 0
0.252225 0.00942724 0
0.246223 0.0161385 0
0.249724 0.0120441 0
0.238607 0.00756687 0
0.213395 0.00209476 0
0.213704 0.00199561 0
0.246214 0.015393 0
0.19893 -0.00532471 0
0.249808 0.00807319 0
0.250744 0.0100393 0
0.21417 0.00185227 0
0.246198 0.0143951 0
0.214651 0.00170751 0
0.247997 0.0119541 0
0.225137 0.00422706 0
0.215373 0.00149989 0
0.246178 0.0134124 0
0.242857 0.0059067 0
0.210086 -0.00154851 0
0.249449 0.00926755 0
0.216128 0.00128657 0
0 0 0
0.251215 0.00675439 0
0.246139 0.0121093 0
0.217227 0.000974816 0
0.18721 -0.0100301 0
0.243714 0.0139067 0
0.154765 -0.0123175 0
0.246093 0.0108257 0
0.207893 -0.00403512 0
0.218382 0.000646935 0
0.243711 0.0132449 0
0.245839 0.0040667 0
0.116688 -0.0104051 0
0.249133 0.00657682 0
0.243707 0.0123934 0
0.199474 -0.00772287 0
0.232193 0.00250424 0
0.24768 0.0076258 0
0.220059 0.000166349 0
0.24602 0.00914163 0
0.213372 -0.00239446 0
0.243696 0.0112793 0
0.213636 -0.00256641 0
0.21408 -0.00280829 0
0.221847 -0.000351189 0
0.250012 0.00278614 0
0.245934 0.00748789 0
0.249682 0.00339533 0
0.243676 0.00981078 0
0.204194 -0.00760006 0
0.21476 -0.00315889 0
0.247869 0.00152662 0
0.248669 0.00326559 0
0.22442 -0.00112648 0
0.243636 0.0078768 0
0.245802 0.00535565 0
0.215769 -0.00367657 0
0.240124 -0.000524608 0
0.199851 -0.0101251 0
0.193596 -0.0114276 0
0.208522 -0.00763453 0
0.247133 0.00230984 0
0.227143 -0.00199907 0
0.187786 -0.0127337 0
0.241083 0.00844608 0
0.217304 -0.00443552 0
0.245648 0.00327271 0
0.241085 0.00810471 0
0.243561 0.00534988 0
0.248386 -0.00100358 0
0.241087 0.00776648 0
0.248129 8.2483e-05 0
0.241088 0.00733331 0
0.241089 0.006904 0
0.241088 0.00634357 0
0.213783 -0.00699401 0
0.230739 -0.00333892 0
0.213923 -0.00708062 0
0.214061 -0.00716785 0
0.241086 0.00578816 0
0.214256 -0.00729804 0
0.219618 -0.00557495 0
0.245416 0.000645466 0
0.214449 -0.00742924 0
0.24108 0.00505582 0
0.214728 -0.00762167 0
0.243418 0.00210062 0
0.241073 0.00433054 0
0.215006 -0.00781652 0
0.215398 -0.00809875 0
0.200084 -0.0126704 0
0.234205 -0.00487897 0
0.241059 0.00337191 0
0.247718 -0.00422706 0
0.247354 -0.00375699 0
0.215787 -0.0083862 0
0.245146 -0.0019085 0
0.241042 0.0024244 0
0.245233 -0.00530254 0
0.211344 -0.0103679 0
0.216328 -0.00879746 0
0.246209 -0.00403161 0
0.223132 -0.00731276 0
0.241012 0.0011781 0
0.208904 -0.0118118 0
0.216867 -0.00922005 0
0.188083 -0.0154454 0
0.243155 -0.0019907 0
0.116927 -0.0117849 0
0.240977 -5.03858e-05 0
0.237994 -0.00711161 0
0.204733 -0.0135191 0
0.217649 -0.009805 0
0.24475 -0.00505638 0
0.237934 0.00205866 0
0.246478 -0.00742168 0
0.240918 -0.00164845 0
0.237936 0.00133593 0
0.218452 -0.010406 0
0.200142 -0.0152198 0
0.237935 0.000440672 0
0.21401 -0.0122488 0
0.214238 -0.0124305 0
0.240848 -0.00321895 0
0.240782 -0.0095101 0
0.228306 -0.0100104 0
0.23793 -0.00069466 0
0.214578 -0.0127018 0
0.219619 -0.0112261 0
0.244294 -0.00809984 0
0.215067 -0.0131025 0
0.19395 -0.0168567 0
0.242691 -0.00702205 0
0.237916 -0.00215432 0
0.240738 -0.00523099 0
0.22082 -0.0120844 0
0.215748 -0.0136889 0
0.154868 -0.016736 0
0.244987 -0.0116899 0
0.208888 -0.0159676 0
0.237883 -0.00403911 0
0.244702 -0.0113646 0
0.188131 -0.0181883 0
0.240607 -0.00720167 0
0.242708 -0.012659 0
0.216669 -0.0145416 0
0.222512 -0.0132849 0
0.200025 -0.0179399 0
0.243639 -0.0117606 0
0.237816 -0.00646357 0
0 0 0
0.240407 -0.00968193 0
0.234779 -0.014145 0
0.234577 -0.00424341 0
0.217892 -0.0157716 0
0.224283 -0.0145773 0
0.234579 -0.00463015 0
0.23458 -0.00501411 0
0.0630019 -0.00713295 0
0.213706 -0.0174539 0
0.234581 -0.00548324 0
0.241892 -0.0130458 0
0.213817 -0.01755 0
0.213928 -0.0176466 0
0.234582 -0.00594885 0
0.243073 -0.015739 0
0.214084 -0.0177897 0
0.237687 -0.00955117 0
0.240172 -0.0121011 0
0.234581 -0.00653228 0
0.21424 -0.0179339 0
0.242877 -0.0152708 0
0.214461 -0.0181448 0
0.234579 -0.00711098 0
0.214679 -0.0183577 0
0.226681 -0.016428 0
0.234574 -0.00784908 0
0.219535 -0.0175435 0
0.214986 -0.0186648 0
0.20436 -0.0201946 0
0.116744 -0.0133428 0
0.234566 -0.0085805 0
0.199726 -0.0206611 0
0.215287 -0.0189761 0
0.187907 -0.0209467 0
0.234553 -0.00952208 0
0.2157 -0.0194188 0
0.239824 -0.0150842 0
0.208467 -0.020712 0
0.210929 -0.0204239 0
0.234536 -0.010454 0
0.216102 -0.0198691 0
0.237449 -0.0134242 0
0.229192 -0.0184772 0
0.234508 -0.0116555 0
0.242141 -0.0195667 0
0.216642 -0.0204993 0
0.241807 -0.0194143 0
0.193435 -0.0223795 0
0.221714 -0.0201166 0
0.239407 -0.0201342 0
0.234472 -0.0128428 0
0.217162 -0.0211431 0
0.239419 -0.0179823 0
0.240562 -0.020064 0
0.234415 -0.0143661 0
0.217839 -0.0220316 0
0.232026 -0.0213511 0
0.199214 -0.0235761 0
0.230468 -0.0115781 0
0.237027 -0.0181882 0
0.21284 -0.0233243 0
0.234347 -0.0158681 0
0.23047 -0.0124177 0
0.213019 -0.0235202 0
0.218488 -0.0229439 0
0.213283 -0.0238123 0
0.187443 -0.0237286 0
0.230467 -0.0134102 0
0.238836 -0.0214772 0
0.240605 -0.0233832 0
0.213662 -0.0242419 0
0.234241 -0.0177759 0
0.230458 -0.014616 0
0.219306 -0.0241876 0
0.22454 -0.0239068 0
0.214189 -0.0248657 0
0.207584 -0.0254234 0
0.234333 -0.0244474 0
0.230438 -0.0161111 0
0.234115 -0.0196518 0
0.214901 -0.0257617 0
0.220076 -0.0254725 0
0.238165 -0.0248597 0
0.230397 -0.0179881 0
0.198516 -0.0264876 0
0.236302 -0.0239188 0
0.233924 -0.0220007 0
0.215831 -0.0270362 0
0.116138 -0.0148156 0
0.153653 -0.0214426 0
0.238669 -0.0279165 0
0.221004 -0.0272109 0
0.202802 -0.0276633 0
0.23032 -0.0203543 0
0.238446 -0.0280304 0
0.235948 -0.0284029 0
0.186721 -0.0265274 0
0.233701 -0.0243029 0
0.21699 -0.0288337 0
0.237227 -0.0288517 0
0.211431 -0.0290788 0
0.225985 -0.0189043 0
0.211515 -0.0291796 0
0.211599 -0.0292806 0
0.221821 -0.0290274 0
0.192085 -0.0279933 0
0.225987 -0.0193635 0
0.228426 -0.0293547 0
0.21172 -0.0294301 0
0.230181 -0.0233275 0
0.21184 -0.0295801 0
0.225988 -0.0198204 0
0.212012 -0.0297988 0
0.225988 -0.0203523 0
0.212181 -0.030019 0
0.233373 -0.0271368 0
0.225986 -0.0208814 0
0.21242 -0.0303352 0
0.225983 -0.0215143 0
0.212654 -0.0306543 0
0.197549 -0.0296118 0
0.225978 -0.0221436 0
0.206122 -0.0306906 0
0.236145 -0.0322379 0
0.212976 -0.0311064 0
0.235101 -0.0306446 0
0.225969 -0.0229137 0
0.21835 -0.0313541 0
0.213291 -0.0315643 0
0.222911 -0.0314456 0
0.229935 -0.0270282 0
0.225958 -0.023679 0
0.232993 -0.0299042 0
0.236147 -0.0326913 0
0.20826 -0.0316216 0
0 0 0
0.21371 -0.0322041 0
0.225939 -0.0246306 0
0.185772 -0.0293426 0
0.214115 -0.0328553 0
0.225915 -0.0255753 0
0.225879 -0.0267606 0
0.214639 -0.0337536 0
0.224039 -0.0340062 0
0.23245 -0.0332452 0
0.225835 -0.0279355 0
0.229512 -0.031568 0
0.215134 -0.0346734 0
0.21977 -0.0348802 0
0.23504 -0.0368652 0
0.196397 -0.0327263 0
0.225768 -0.0294123 0
0.234711 -0.0371598 0
0.23182 -0.0367326 0
0.115049 -0.0165059 0
0.215748 -0.035927 0
0.209294 -0.03543 0
0.22569 -0.0308736 0
0.209442 -0.0356345 0
0.231829 -0.0364973 0
0.209656 -0.0359385 0
0.220479 -0.0273752 0
0.225456 -0.0374093 0
0.2332 -0.0383532 0
0.209961 -0.0363842 0
0.216307 -0.03722 0
0.225573 -0.0327024 0
0.22048 -0.0283963 0
0.204179 -0.0358918 0
0.184596 -0.0321628 0
0.210383 -0.0370289 0
0.220474 -0.0295512 0
0.189941 -0.0336813 0
0.228808 -0.0370344 0
0.199781 -0.0359071 0
0.225438 -0.0345079 0
0.210947 -0.0379503 0
0.216948 -0.0389611 0
0.220458 -0.0308931 0
0.233134 -0.0414343 0
0.220999 -0.0397825 0
0.230972 -0.0403395 0
0.220428 -0.0324896 0
0.211672 -0.0392532 0
0.194918 -0.0360616 0
0.226716 -0.0411142 0
0.225239 -0.0367461 0
0.217481 -0.0407659 0
0.151092 -0.0263922 0
0.220373 -0.0344232 0
0.225011 -0.0389498 0
0.212554 -0.041078 0
0.0612319 -0.00831885 0
0.230006 -0.0440658 0
0.220278 -0.0367912 0
0.183214 -0.0349881 0
0.218001 -0.043137 0
0.227675 -0.0434759 0
0.224684 -0.0416446 0
0.230594 -0.0461281 0
0.206595 -0.0416236 0
0.206661 -0.0417279 0
0.206727 -0.0418325 0
0.206824 -0.0419869 0
0.227381 -0.045884 0
0.20692 -0.042142 0
0.213543 -0.0436109 0
0.230305 -0.0469175 0
0.207059 -0.0423678 0
0.220116 -0.0397023 0
0.207196 -0.0425947 0
0.207388 -0.0429202 0
0.201535 -0.0415646 0
0.19326 -0.0393725 0
0.214532 -0.0359731 0
0.218361 -0.0455787 0
0.207577 -0.0432482 0
0.113516 -0.0180004 0
0.22431 -0.044289 0
0.214532 -0.0365414 0
0.221958 -0.0465732 0
0.207836 -0.0437115 0
0.214531 -0.037108 0
0.228694 -0.0483655 0
0.208087 -0.0441797 0
0.214529 -0.0377384 0
0.214524 -0.0383667 0
0.20842 -0.0448313 0
0.219847 -0.0432706 0
0.214516 -0.0390839 0
0.203021 -0.0437015 0
0.208739 -0.0454919 0
0.214505 -0.0397984 0
0.214511 -0.0470872 0
0.223789 -0.0474695 0
0.187038 -0.0394174 0
0.214489 -0.0406337 0
0.181644 -0.0378011 0
0.227136 -0.050676 0
0.218593 -0.0487178 0
0.209148 -0.0463978 0
0.21447 -0.0414655 0
0.225911 -0.0508777 0
0.20953 -0.0473195 0
0.214441 -0.0424576 0
0.227198 -0.0525163 0
0 0 0
0.214407 -0.0434448 0
0.219409 -0.0476051 0
0.223199 -0.0505783 0
0.209995 -0.0485644 0
0.214358 -0.0446398 0
0.191225 -0.0428957 0
0.218614 -0.0519316 0
0.214302 -0.0458274 0
0.210413 -0.0498347 0
0.195091 -0.0448056 0
0.215252 -0.051774 0
0.214221 -0.047277 0
0.203051 -0.0482668 0
0.203176 -0.0484757 0
0.203355 -0.0487857 0
0.198419 -0.0471099 0
0.222395 -0.0542449 0
0.210882 -0.0515239 0
0.225701 -0.0563502 0
0.203608 -0.0492388 0
0.214129 -0.0487156 0
0.222402 -0.0555495 0
0.179885 -0.040598 0
0.218712 -0.052796 0