# vtk DataFile Version 3.0
File generated from DClib
ASCII

DATASET UNSTRUCTURED_GRID
POINTS 1909 float
50 0 0 
48.75 0 0 
50 1.66667 0 
47.5 0 0 
50 3.33333 0 
46.25 0 0 
50 5 0 
45 0 0 
43.75 0 0 
50 6.66667 0 
43 2 0 
42.5 0 0 
50 8.33333 0 
43 4.66667 0 
41.25 0 0 
41.075 2 0 
50 10 0 
40 0 0 
43 7.33333 0 
39.15 2 0 
38.75 0 0 
43 10 0 
37.5 0 0 
37.225 2 0 
36.25 0 0 
36 4 0 
35.3 2 0 
36 5 0 
35 0 0 
35.325 4 0 
36 6 0 
36 7 0 
34.65 4 0 
36 8 0 
33.75 0 0 
33.975 4 0 
36 9 0 
33.375 2 0 
33.3 4 0 
36 10 0 
32.5 0 0 
32.625 4 0 
33 6 0 
31.95 4 0 
33 7.45455 0 
31.45 2 0 
31.25 0 0 
31.95 6 0 
33 8.79545 0 
31.275 4 0 
33 10 0 
30.6 4 0 
30 0 0 
30.9 6 0 
29.925 4 0 
29.525 2 0 
29.85 6 0 
29.25 4 0 
28.75 0 0 
30 8 0 
30 8.45455 0 
28.575 4 0 
29.625 8 0 
30 8.90909 0 
28.8 6 0 
30 9.25 0 
29.782 8.90909 0 
30 9.59091 0 
29.9487 9.59091 0 
29.25 8 0 
29.7462 9.25 0 
30 9.79545 0 
29.897 9.59091 0 
29.564 8.90909 0 
29.9547 9.79545 0 
29.3462 8.45455 0 
29.84 9.59091 0 
30 10 0 
29.8975 9.79545 0 
29.9882 10 0 
29.9902 10.0098 0 
29.7827 9.59091 0 
29.9765 10 0 
29.9804 10.0196 0 
29.9667 10.0098 0 
29.9591 10 0 
29.9686 10.0196 0 
29.9659 10.0341 0 
29.9569 10.0196 0 
29.9418 10 0 
29.9395 10.0196 0 
29.9515 10.0485 0 
29.932 10.0098 0 
29.9424 10.0341 0 
29.8241 9.79545 0 
29.7181 9.59091 0 
29.9166 10 0 
29.9397 10.0485 0 
29.9222 10.0196 0 
29.9279 10.0485 0 
29.9305 10.0695 0 
29.8914 10 0 
29.9077 10.0341 0 
27.9 4 0 
29.897 10.0196 0 
29.9106 10.0485 0 
29.8817 10.0098 0 
29.907 10.0695 0 
29.8933 10.0485 0 
29.9095 10.0905 0 
29.8719 10.0196 0 
27.6 2 0 
29.8556 10 0 
29.8978 10.0905 0 
29.6531 9.59091 0 
29.3437 8.90909 0 
27.5 0 0 
29.8681 10.0485 0 
29.886 10.0905 0 
29.8574 10.0341 0 
29.4839 9.25 0 
29.8723 10.0695 0 
29.7289 9.79545 0 
29.836 10.0196 0 
29.8687 10.0905 0 
29.8197 10 0 
29.8797 10.1203 0 
29.843 10.0485 0 
29.8513 10.0905 0 
29.81 10.0098 0 
29.8561 10.1203 0 
29.8002 10.0196 0 
29.8221 10.0695 0 
29.8072 10.0485 0 
29.8262 10.0905 0 
29.5782 9.59091 0 
29.8498 10.1502 0 
29.7695 10 0 
29.7858 10.0341 0 
29.838 10.1502 0 
29.8215 10.1203 0 
29.8011 10.0905 0 
29.8262 10.1502 0 
29.7714 10.0485 0 
28.875 8 0 
29.75 10.0196 0 
29.8089 10.1502 0 
29.7654 10.0905 0 
29.7193 10 0 
29.7916 10.1502 0 
29.7505 10.0695 0 
29.8079 10.1921 0 
29.7713 10.1203 0 
29.7096 10.0098 0 
29.6047 9.79545 0 
29.503 9.59091 0 
29.7213 10.0485 0 
29.7665 10.1502 0 
29.6999 10.0196 0 
29.7844 10.1921 0 
29.7296 10.0905 0 
29.6856 10.0341 0 
29.7414 10.1502 0 
29.7497 10.1921 0 
29.6503 10 0 
29.7661 10.2339 0 
29.6712 10.0485 0 
29.6999 10.1203 0 
29.7543 10.2339 0 
29.6796 10.0905 0 
29.7057 10.1502 0 
29.7425 10.2339 0 
29.1235 8.90909 0 
29.6309 10.0196 0 
29.6504 10.0695 0 
29.4146 9.59091 0 
29.7252 10.2339 0 
29.6996 10.1921 0 
29.6701 10.1502 0 
29.7079 10.2339 0 
29.6296 10.0905 0 
29.5813 10 0 
29.6023 10.0485 0 
29.5716 10.0098 0 
29.6828 10.2339 0 
29.7086 10.2914 0 
29.2101 9.25 0 
29.562 10.0196 0 
29.6201 10.1502 0 
29.6578 10.2339 0 
29.4428 9.79545 0 
29.5999 10.1203 0 
29.6849 10.2914 0 
29.6283 10.1921 0 
29.5477 10.0341 0 
29.3259 9.59091 0 
29.5608 10.0905 0 
29.5335 10.0485 0 
29.6221 10.2339 0 
29.6503 10.2914 0 
29.5702 10.1502 0 
29.4881 10 0 
29.5128 10.0695 0 
29.6511 10.3489 0 
29.5866 10.2339 0 
29.6392 10.3489 0 
29.4689 10.0196 0 
29.6002 10.2914 0 
29.6273 10.3489 0 
29.4921 10.0905 0 
29.61 10.3489 0 
29.5286 10.1921 0 
29.5016 10.1502 0 
29.5368 10.2339 0 
29.5926 10.3489 0 
29.4405 10.0485 0 
29.2199 9.59091 0 
29.4626 10.1203 0 
29.3949 10 0 
28.9 8.90909 0 
29.5676 10.3489 0 
29.5291 10.2914 0 
29.3853 10.0098 0 
28.6923 8.45455 0 
29.487 10.2339 0 
29.5426 10.3489 0 
29.3758 10.0196 0 
29.5734 10.4266 0 
29.4331 10.1502 0 
29.3993 10.0905 0 
28.5 8 0 
29.3617 10.0341 0 
29.5496 10.4266 0 
29.5071 10.3489 0 
29.2327 9.79545 0 
29.3475 10.0485 0 
29.1136 9.59091 0 
29.4187 10.2339 0 
29.5148 10.4266 0 
29.4716 10.3489 0 
29.3918 10.1921 0 
29.3271 10.0695 0 
29.4298 10.2914 0 
29.2714 10 0 
29.3406 10.1502 0 
28.9208 9.25 0 
29.3066 10.0905 0 
29.4648 10.4266 0 
29.422 10.3489 0 
29.4958 10.5042 0 
29.2524 10.0196 0 
27.75 6 0 
29.3504 10.2339 0 
29.4837 10.5042 0 
29.4718 10.5042 0 
29.2774 10.1203 0 
29.4543 10.5042 0 
29.3724 10.3489 0 
29.2244 10.0485 0 
29.4369 10.5042 0 
29.3938 10.4266 0 
28.9853 9.59091 0 
29.2481 10.1502 0 
28.6766 8.90909 0 
29.4119 10.5042 0 
29.2934 10.2914 0 
27.225 4 0 
29.148 10 0 
29.2582 10.2339 0 
29.1837 10.0905 0 
29.3869 10.5042 0 
29.1385 10.0098 0 
29.3044 10.3489 0 
29.1291 10.0196 0 
29.2072 10.1921 0 
29.3514 10.5042 0 
29.1152 10.0341 0 
29.3929 10.6071 0 
29.2949 10.4266 0 
29.1013 10.0485 0 
29.3686 10.6071 0 
29.316 10.5042 0 
29.2364 10.3489 0 
28.9623 9.79545 0 
29.1257 10.1502 0 
29.1662 10.2339 0 
29.0811 10.0695 0 
28.8566 9.59091 0 
29.3336 10.6071 0 
29.2666 10.5042 0 
29.0609 10.0905 0 
28.9875 10 0 
29.2835 10.6071 0 
29.1448 10.3489 0 
29.0321 10.1203 0 
29.2173 10.5042 0 
29.1098 10.2914 0 
28.125 8 0 
28.9688 10.0196 0 
29.1594 10.4266 0 
28.611 9.25 0 
29.29 10.71 0 
28.4486 8.90909 0 
29.0443 10.2339 0 
29.0033 10.1502 0 
29.2777 10.71 0 
28.9413 10.0485 0 
29.2128 10.6071 0 
29.2655 10.71 0 
29.1497 10.5042 0 
29.2478 10.71 0 
28.7003 9.59091 0 
29.0533 10.3489 0 
29.2303 10.71 0 
28.9629 10.1921 0 
28.9013 10.0905 0 
29.2051 10.71 0 
29.0822 10.5042 0 
29.1801 10.71 0 
28.827 10 0 
29.1144 10.6071 0 
28.8177 10.0098 0 
28.9225 10.2339 0 
28.8085 10.0196 0 
29.1447 10.71 0 
28.7949 10.0341 0 
28.8443 10.1502 0 
28.977 10.4266 0 
28.9322 10.3489 0 
29.1094 10.71 0 
28.7813 10.0485 0 
28.9912 10.5042 0 
29.1562 10.8438 0 
28.5436 9.59091 0 
28.7615 10.0695 0 
28.8669 10.2914 0 
29.1313 10.8438 0 
28.6184 9.79545 0 
29.0602 10.71 0 
28.2207 8.90909 0 
28.7418 10.0905 0 
28.0378 8.45455 0 
28.9798 10.6071 0 
29.0958 10.8438 0 
29.0112 10.71 0 
28.9005 10.5042 0 
28.7136 10.1203 0 
28.7644 10.2339 0 
28.8113 10.3489 0 
29.0454 10.8438 0 
28.6223 10 0 
28.6854 10.1502 0 
28.2746 9.25 0 
28.9441 10.71 0 
28.6042 10.0196 0 
27.75 8 0 
28.9747 10.8438 0 
28.6459 10.1921 0 
28.5773 10.0485 0 
29.0225 10.9775 0 
28.3532 9.59091 0 
28.7804 10.5042 0 
28.736 10.4266 0 
28.8772 10.71 0 
29.0097 10.9775 0 
28.9971 10.9775 0 
28.799 10.6071 0 
28.9791 10.9775 0 
28.5384 10.0905 0 
28.6064 10.2339 0 
28.6543 10.3489 0 
28.9611 10.9775 0 
28.8769 10.8438 0 
27.9867 8.90909 0 
26.25 0 0 
28.9358 10.9775 0 
28.7871 10.71 0 
28.9106 10.9775 0 
28.6607 10.5042 0 
28.4177 10 0 
26.55 4 0 
28.552 10.2914 0 
28.483 10.1502 0 
28.4087 10.0098 0 
28.8751 10.9775 0 
28.3998 10.0196 0 
28.3866 10.0341 0 
28.8399 10.9775 0 
28.6974 10.71 0 
28.3735 10.0485 0 
28.1625 9.59091 0 
28.7436 10.8438 0 
28.4976 10.3489 0 
28.3543 10.0695 0 
28.791 10.9775 0 
28.4052 10.2339 0 
28.3352 10.0905 0 
28.8519 11.1481 0 
28.1869 9.79545 0 
28.5607 10.6071 0 
28.5053 10.5042 0 
28.7423 10.9775 0 
28.8258 11.1481 0 
28.308 10.1203 0 
28.5787 10.71 0 
27.904 9.25 0 
28.7893 11.1481 0 
28.424 10.4266 0 
27.7528 8.90909 0 
28.2807 10.1502 0 
28.6758 10.9775 0 
27.375 8 0 
28.7383 11.1481 0 
28.1619 10 0 
28.5649 10.8438 0 
28.2425 10.1921 0 
28.6096 10.9775 0 
28.1444 10.0196 0 
28.298 10.3489 0 
28.4605 10.71 0 
26.7 6 0 
27.9315 9.59091 0 
28.3503 10.5042 0 
28.6676 11.1481 0 
28.1187 10.0485 0 
28.2042 10.2339 0 
28.5207 10.9775 0 
28.0813 10.0905 0 
28.6814 11.3186 0 
27.3818 8.45455 0 
28.6679 11.3186 0 
28.1516 10.2914 0 
28.5703 11.1481 0 
28.6544 11.3186 0 
28.6358 11.3186 0 
27.5109 8.90909 0 
28.3072 10.71 0 
28.6173 11.3186 0 
28.2524 10.6071 0 
28.4322 10.9775 0 
28.028 10.1502 0 
28.5915 11.3186 0 
28.0989 10.3489 0 
28.33 10.8438 0 
28.5658 11.3186 0 
28.153 10.5042 0 
27.9061 10 0 
27.8975 10.0098 0 
28.5303 11.3186 0 
28.4384 11.1481 0 
27.7002 9.59091 0 
27.889 10.0196 0 
27.8765 10.0341 0 
28.4949 11.3186 0 
28.3154 10.9775 0 
27.9532 10.2339 0 
27.8639 10.0485 0 
28.0276 10.4266 0 
28.1544 10.71 0 
27.8457 10.0695 0 
27.4909 9.25 0 
28.4463 11.3186 0 
27 8 0 
27.8275 10.0905 0 
28.3979 11.3186 0 
27.8015 10.1203 0 
27.6542 9.79545 0 
25.675 2 0 
28.1991 10.9775 0 
27.2691 8.90909 0 
27.9563 10.5042 0 
28.4682 11.5318 0 
28.2625 11.1481 0 
27.7755 10.1502 0 
28.3322 11.3186 0 
27.8502 10.3489 0 
28.4401 11.5318 0 
25.875 4 0 
27.7391 10.1921 0 
28.4019 11.5318 0 
28.0268 10.8438 0 
28.2668 11.3186 0 
27.9602 10.71 0 
28.3498 11.5318 0 
27.4223 9.59091 0 
27.7026 10.2339 0 
27.5927 10 0 
28.0486 10.9775 0 
27.8616 10.6071 0 
27.5762 10.0196 0 
28.1794 11.3186 0 
28.2786 11.5318 0 
27.5519 10.0485 0 
27.6524 10.2914 0 
28.0319 11.1481 0 
27.7108 10.5042 0 
27.5167 10.0905 0 
27.0169 8.90909 0 
28.0924 11.3186 0 
27.6021 10.3489 0 
27.8988 10.9775 0 
28.1818 11.5318 0 
27.7667 10.71 0 
26.625 8 0 
28.255 11.745 0 
27.4664 10.1502 0 
28.2402 11.745 0 
28.2256 11.745 0 
28.2059 11.745 0 
27.978 11.3186 0 
26.7234 8.45455 0 
27.0259 9.25 0 
27.5342 10.4266 0 
28.1863 11.745 0 
27.1442 9.59091 0 
28.0516 11.5318 0 
28.1598 11.745 0 
27.3959 10.2339 0 
28.1334 11.745 0 
27.2793 10 0 
27.2714 10.0098 0 
27.2635 10.0196 0 
27.7086 10.9775 0 
27.6431 10.8438 0 
28.0975 11.745 0 
27.8643 11.3186 0 
27.4661 10.5042 0 
27.2518 10.0341 0 
27.2401 10.0485 0 
28.0617 11.745 0 
26.7648 8.90909 0 
27.5255 10.71 0 
27.7353 11.1481 0 
27.2231 10.0695 0 
28.0133 11.745 0 
27.2061 10.0905 0 
27.8791 11.5318 0 
27.2986 10.3489 0 
27.1818 10.1203 0 
27.9651 11.745 0 
27.3758 10.6071 0 
27.0077 9.79545 0 
27.7174 11.3186 0 
27.1576 10.1502 0 
25 0 0 
27.5193 10.9775 0 
27.9003 11.745 0 
27.1236 10.1921 0 
26.25 8 0 
27.9939 12.0061 0 
25.65 6 0 
27.8359 11.745 0 
26.8136 9.59091 0 
27.0896 10.2339 0 
27.9626 12.0061 0 
27.2853 10.71 0 
25.2 4 0 
27.5713 11.3186 0 
27.9218 12.0061 0 
26.4998 8.90909 0 
27.167 10.5042 0 
27.6541 11.5318 0 
27.0427 10.2914 0 
27.7503 11.745 0 
26.9033 10 0 
27.8677 12.0061 0 
26.8882 10.0196 0 
26.8659 10.0485 0 
26.9958 10.3489 0 
27.2836 10.9775 0 
27.6652 11.745 0 
27.3609 11.1481 0 
27.7955 12.0061 0 
26.499 9.25 0 
[...]
POINT_DATA 1909
SCALARS phi float 1
LOOKUP_TABLE default
VECTORS Displacement float
0 0 0
0 0 0
0 -0.00574033 0
0 0 0
0 -0.00793985 0
0 0 0
0 -0.00687035 0
0 0 0
0 0 0
0 -0.00285285 0
0.0163088 -0.00497665 0
0 0 0
0 0.00384874 0
0.0316156 -0.00295256 0
0 0 0
0.022128 -0.00487626 0
0 0.0124648 0
0 0 0
0.0420529 0.00702184 0
0.0285233 -0.00494989 0
0 0 0
0.0476349 0.0227912 0
0 0 0
0.0353599 -0.00531851 0
0 0 0
0.0670047 -0.00330087 0
0.0422584 -0.00598658 0
0.0789856 0.000759538 0
0 0 0
0.0718843 -0.00364646 0
0.0875938 0.00624129 0
0.0931488 0.0128169 0
0.0766759 -0.00407773 0
0.0964757 0.0197398 0
0 0 0
0.0814421 -0.00476627 0
0.0990651 0.0269365 0
0.0487752 -0.00691068 0
0.0860732 -0.00555526 0
0.101512 0.0352599 0
0 0 0
0.0904805 -0.0065085 0
0.11568 0.00320342 0
0.0946645 -0.00755828 0
0.126728 0.0148884 0
0.0545004 -0.00803644 0
0 0 0
0.125376 -0.000653181 0
0.131426 0.0305944 0
0.0985308 -0.00872388 0
0.132201 0.0528881 0
0.102087 -0.00997546 0
0 0 0
0.133551 -0.00467742 0
0.10529 -0.0113114 0
0.0590968 -0.00931947 0
0.14044 -0.00904218 0
0.108116 -0.0127266 0
0 0 0
0.164347 0.00125485 0
0.169054 0.00487447 0
0.110574 -0.0141992 0
0.167728 -0.0016965 0
0.17364 0.00940842 0
0.14602 -0.0137214 0
0.177026 0.0159314 0
0.176148 0.00657631 0
0.180468 0.0252162 0
0.181228 0.0229894 0
0.170712 -0.00472557 0
0.180305 0.0108909 0
0.181283 0.0316753 0
0.181963 0.0211347 0
0.178404 0.00403548 0
0.182015 0.0294169 0
0.175355 -0.00130227 0
0.182685 0.0192687 0
0.181488 0.0391002 0
0.182984 0.0268041 0
0.181826 0.039223 0
0.240731 0.0604543 0
0.183358 0.0176262 0
0.18221 0.0391767 0
0.281508 0.0742097 0
0.23926 0.0595569 0
0.182805 0.0390609 0
0.279967 0.0733203 0
0.284622 0.0737954 0
0.278216 0.0722483 0
0.183451 0.0388109 0
0.275275 0.0707483 0
0.28476 0.072903 0
0.236725 0.0577321 0
0.283193 0.0720172 0
0.184296 0.0239813 0
0.184034 0.0159608 0
0.184402 0.0381353 0
0.284634 0.0721351 0
0.27233 0.0691183 0
0.284525 0.0714343 0
0.285204 0.0719517 0
0.185384 0.0374187 0
0.279981 0.0696046 0
0.112614 -0.0157551 0
0.268277 0.0666821 0
0.284159 0.0705342 0
0.233465 0.0544324 0
0.285001 0.0706313 0
0.283638 0.069532 0
0.284828 0.0708742 0
0.264447 0.0642608 0
0.0622962 -0.0107325 0
0.186721 0.035969 0
0.284767 0.0702229 0
0.184655 0.0144277 0
0.180586 0.00165132 0
0 0 0
0.282527 0.0679347 0
0.284687 0.0695481 0
0.274741 0.0656794 0
0.183244 0.00701443 0
0.284575 0.0685732 0
0.186017 0.0209868 0
0.259661 0.0606698 0
0.284545 0.0684825 0
0.188027 0.0345857 0
0.284359 0.0693721 0
0.280964 0.0661626 0
0.284392 0.0673646 0
0.229709 0.0492794 0
0.284217 0.0679123 0
0.255186 0.0572714 0
0.283283 0.0651552 0
0.278406 0.0633575 0
0.284117 0.0656772 0
0.185324 0.0128283 0
0.283681 0.0676767 0
0.189681 0.0323924 0
0.267293 0.059478 0
0.283599 0.0669062 0
0.28397 0.0656135 0
0.283806 0.0639507 0
0.283516 0.0661178 0
0.275436 0.060507 0
0.173571 -0.00777068 0
0.249743 0.0526079 0
0.283383 0.0649381 0
0.283139 0.0615083 0
0.191193 0.0303449 0
0.283244 0.0637473 0
0.280025 0.0599534 0
0.282681 0.0651542 0
0.283552 0.0621751 0
0.225415 0.042362 0
0.188137 0.0177951 0
0.185948 0.0113095 0
0.271127 0.0564355 0
0.283037 0.062014 0
0.244845 0.0483686 0
0.282527 0.0635304 0
0.282214 0.0590649 0
0.257533 0.051076 0
0.282826 0.0603009 0
0.282285 0.0611345 0
0.193 0.0276558 0
0.281645 0.0625412 0
0.266645 0.0525382 0
0.282698 0.057373 0
0.281558 0.0617141 0
0.280457 0.0557224 0
0.282521 0.0579061 0
0.281471 0.060894 0
0.182597 -0.000709597 0
0.239067 0.0430406 0
0.273756 0.0527748 0
0.18668 0.00968511 0
0.281343 0.0596984 0
0.281916 0.0577504 0
0.282225 0.0556053 0
0.281217 0.0585224 0
0.27818 0.0524507 0
0.194535 0.0251361 0
0.260631 0.0474247 0
0.220588 0.0342338 0
0.281038 0.0568544 0
0.280238 0.0589394 0
0.185951 0.00337911 0
0.234137 0.0383297 0
0.281706 0.0525514 0
0.280864 0.0552359 0
0.190573 0.0143419 0
0.28047 0.0511319 0
0.280083 0.057337 0
0.281401 0.0532377 0
0.245886 0.0410714 0
0.187402 0.00812991 0
0.274454 0.0481634 0
0.254832 0.0427125 0
0.280619 0.0530166 0
0.279855 0.0550603 0
0.281071 0.0496718 0
0.196293 0.0222234 0
0.263811 0.0437404 0
0.278848 0.0554437 0
0.28038 0.0509002 0
0.278772 0.0546667 0
0.22852 0.0328495 0
0.279533 0.0519396 0
0.278696 0.0539041 0
0.270231 0.0440588 0
0.278587 0.0528064 0
0.280666 0.0475661 0
0.279745 0.0460005 0
0.28006 0.0480902 0
0.278481 0.0517372 0
0.247535 0.0369645 0
0.188283 0.00640914 0
0.27518 0.0434525 0
0.197695 0.0194616 0
0.184498 -0.00309456 0
0.27833 0.0502347 0
0.279099 0.047842 0
0.215402 0.0255809 0
0.180461 -0.00738204 0
0.279762 0.0454667 0
0.278185 0.0487858 0
0.224023 0.0280986 0
0.277153 0.0509904 0
0.277901 0.0425075 0
0.264105 0.0389032 0
0.176074 -0.010912 0
0.233302 0.0303278 0
0.277017 0.0495536 0
0.277985 0.0468062 0
0.193183 0.0104683 0
0.240939 0.0318148 0
0.18919 0.00476161 0
0.279319 0.0420971 0
0.276823 0.0475421 0
0.277796 0.0449207 0
0.278991 0.0407694 0
0.250309 0.0332749 0
0.278549 0.0427181 0
0.199251 0.0164064 0
0.274548 0.0381508 0
0.188474 -0.000310352 0
0.257766 0.0340653 0
0.276555 0.0448072 0
0.27754 0.0424241 0
0.275472 0.0468163 0
0.219129 0.0227951 0
0.150223 -0.0186536 0
0.278825 0.0389871 0
0.275413 0.0461414 0
0.275354 0.0454804 0
0.265236 0.0342686 0
0.275272 0.044534 0
0.277298 0.0400722 0
0.23328 0.0258484 0
0.27519 0.0436123 0
0.276196 0.0412202 0
0.190287 0.0028692 0
0.270417 0.0339575 0
0.186265 -0.00547913 0
0.275075 0.0423209 0
0.277879 0.036573 0
0.114273 -0.0173394 0
0.200462 0.0134762 0
0.277726 0.0351163 0
0.249481 0.0282069 0
0.274963 0.0410728 0
0.210445 0.0168445 0
0.276981 0.0370352 0
0.215503 0.0182455 0
0.274243 0.0328197 0
0.274806 0.0393641 0
0.221453 0.0196132 0
0.273525 0.0417614 0
0.275736 0.0366824 0
0.226948 0.0206838 0
0.27342 0.0405313 0
0.274653 0.0377259 0
0.276686 0.0342023 0
0.195783 0.00589033 0
0.264051 0.0287925 0
0.276071 0.0314606 0
0.234716 0.0220021 0
0.191402 0.00103671 0
0.27327 0.0388185 0
0.274444 0.0355373 0
0.241646 0.0228977 0
0.201752 0.0101306 0
0.273061 0.036484 0
0.276283 0.0306121 0
0.250151 0.0236379 0
0.274243 0.0334548 0
0.276466 0.0293729 0
0.178349 -0.0140293 0
0.211839 0.0131846 0
0.275169 0.0311318 0
0.190815 -0.00421135 0
0.271562 0.0370731 0
0.187894 -0.00793042 0
0.272806 0.0269955 0
0.257022 0.0238633 0
0.271521 0.0365 0
0.220448 0.0149005 0
0.272777 0.0333875 0
0.27148 0.0359374 0
0.273973 0.0307432 0
0.271423 0.0351362 0
0.192723 -0.00111961 0
0.275842 0.0272916 0
0.271366 0.0343526 0
0.263861 0.023476 0
0.232688 0.0167055 0
0.271284 0.0332548 0
0.273714 0.0281792 0
0.271203 0.0321863 0
0.202769 0.0069068 0
0.272399 0.029403 0
0.206913 0.00820565 0
0.268486 0.0226873 0
0.209531 0.00886541 0
0.271087 0.0307177 0
0.212636 0.00949312 0
0.247743 0.0179462 0
0.274502 0.0245464 0
0.274802 0.0232096 0
0.270972 0.0292972 0
0.2158 0.0100633 0
0.273378 0.0249208 0
0.269276 0.0315127 0
0.194017 -0.0032342 0
0.220584 0.0108247 0
0.271772 0.0211063 0
0.269201 0.0304515 0
0.198222 0.00032899 0
0.270809 0.027387 0
0.189391 -0.0103801 0
0.225434 0.011466 0
0.184518 -0.0135712 0
0.271907 0.0244353 0
0.269093 0.0289813 0
0.270648 0.0255526 0
0.273062 0.021867 0
0.23235 0.0121915 0
0.261586 0.0175116 0
0.273135 0.0193839 0
0.268942 0.0269728 0
0.203793 0.00310718 0
0.238853 0.01262 0
0.193041 -0.00836051 0
0.270425 0.0231444 0
0.207644 0.00407579 0
0.180258 -0.0171927 0
0.268733 0.0242886 0
0.246954 0.012801 0
0.211938 0.00475761 0
0.26703 0.0263252 0
0.195507 -0.00575398 0
0.27265 0.0180722 0
0.273117 0.016955 0
0.270204 0.0208522 0
0.267 0.0258223 0
0.26697 0.0253276 0
0.271289 0.0184516 0
0.266928 0.0246321 0
0.218691 0.00555321 0
0.253663 0.0125629 0
0.269694 0.0148545 0
0.266886 0.0239498 0
0.268449 0.0207998 0
0.190741 -0.0129087 0
0 0 0
0.266825 0.0229999 0
0.26991 0.017927 0
0.266764 0.022072 0
0.272197 0.0145865 0
0.204625 -0.000561648 0
0.115491 -0.0190251 0
0.260419 0.0116993 0
0.229329 0.00639971 0
0.205801 -0.000307571 0
0.266677 0.0207996 0
0.206851 -0.000124982 0
0.208245 6.31183e-05 0
0.26659 0.0195643 0
0.269625 0.0151761 0
0.209691 0.000236424 0
0.196903 -0.00824664 0
0.268073 0.0164161 0
0.264974 0.0105301 0
0.211938 0.000478654 0
0.266469 0.017904 0
0.243529 0.00672774 0
0.214365 0.000713771 0
0.264358 0.020211 0
0.200503 -0.00633474 0
0.270595 0.0115562 0
0.271111 0.0104377 0
0.266348 0.0163062 0
0.264308 0.0192651 0
0.21813 0.00102198 0
0.269275 0.0117839 0
0.195181 -0.0128071 0
0.264237 0.0179777 0
0.268165 0.00860674 0
0.191947 -0.0154307 0
0.222218 0.00128887 0
0.266185 0.014211 0
0.181901 -0.0203588 0
0.264138 0.0162378 0
0.205354 -0.00491556 0
0.267595 0.0111288 0
0.228227 0.00153457 0
0.266027 0.0122187 0
0.206557 -0.00482021 0
0.257412 0.00550711 0
0.268971 0.00864504 0
0.153003 -0.02378 0
0.198443 -0.0112272 0
0.269376 0.00661488 0
0.264001 0.0139279 0
0.208389 -0.00474341 0
0.234239 0.00157036 0
0.265823 0.00967908 0
0.211384 -0.0046648 0
0.261728 0.014501 0
0.187548 -0.0198235 0
0.261708 0.0140505 0
0.241967 0.00128424 0
0.263817 0.0109407 0
0.261689 0.0136079 0
0.261662 0.0129998 0
0.193024 -0.0180285 0
0.268558 0.00484492 0
0.261636 0.0124041 0
0.26916 0.00393283 0
0.265632 0.00729537 0
0.216499 -0.00460284 0
0.261599 0.011588 0
0.248671 0.000633899 0
0.26701 0.00501749 0
0.261563 0.0107921 0
0.265715 0.0021484 0
0.205984 -0.0091069 0
0.206339 -0.00913869 0
0.261513 0.00971259 0
0.263575 0.00720136 0
0.199815 -0.0141869 0
0.206708 -0.00916897 0
0.207279 -0.00921274 0
0.261464 0.00866669 0
0.265393 0.00432879 0
0.225264 -0.00465313 0
0.207891 -0.00925207 0
0.25563 -0.000680423 0
0.268068 0.00131056 0
0.208844 -0.00930596 0
0.197184 -0.017649 0
0.261398 0.00727007 0
0.183192 -0.0235364 0
0.209858 -0.00936189 0
0.261334 0.00592717 0
0.211435 -0.00944057 0
0.202844 -0.0140171 0
0.0638732 -0.0122551 0
0.265151 0.0015224 0
0.193953 -0.0206127 0
0.260427 -0.00225792 0
0.258777 0.0079898 0
0.263264 0.00266662 0
0.213178 -0.00951929 0
0.261249 0.00416871 0
0.238211 -0.00527289 0
0.25875 0.00714357 0
0.116314 -0.0207023 0
0.215964 -0.00962969 0
0.258712 0.00602706 0
0.266279 -0.00202137 0
0.261167 0.00248587 0
0.266888 -0.0029635 0
0.25866 0.00455026 0
0.201204 -0.0177192 0
0.219149 -0.00975223 0
0.206625 -0.0139584 0
0.264836 -0.0019521 0
0.263802 -0.00462537 0
0.207095 -0.0141022 0
0.261061 0.00032091 0
0.258588 0.00261318 0
0.207878 -0.0143002 0
0.224011 -0.0100072 0
0.262853 -0.00279435 0
0.252137 -0.00740485 0
0.209159 -0.014583 0
0.194776 -0.0232845 0
0.260948 -0.00176731 0
0.229241 -0.0104084 0
0.264471 -0.00529056 0
0.25849 0.000110378 0
0.264998 -0.00703423 0
0.184219 -0.0267216 0
0.255735 0.00194171 0
0.211258 -0.0150032 0
0.25573 0.00153941 0
0.255726 0.00114399 0
0.25572 0.000617687 0
0.260791 -0.00443021 0
0.189596 -0.0260876 0
0.198912 -0.0230163 0
0.236238 -0.0112377 0
0.255714 0.00010113 0
0.202354 -0.0212248 0
0.258358 -0.00307809 0
0.255706 -0.000591527 0
0.214885 -0.015637 0
0.255698 -0.00127018 0
0.207213 -0.018642 0
0.207394 -0.0187294 0
0.207587 -0.018814 0
0.263908 -0.00940283 0
0.264574 -0.0102012 0
0.255686 -0.00217896 0
0.260608 -0.00702194 0
0.242719 -0.0124025 0
0.20786 -0.0189446 0
0.208146 -0.0190735 0
0.255674 -0.00306859 0
0.195441 -0.0259448 0
0.260879 -0.0117724 0
0.262214 -0.00940794 0
0.208579 -0.019259 0
0.255657 -0.00425281 0
0.209028 -0.0194453 0
0.258167 -0.00712127 0
0.221467 -0.0166358 0
0.209711 -0.019708 0
0.255637 -0.00541365 0
0.249715 -0.0143301 0
0.205168 -0.0227501 0
0.260336 -0.0102928 0
0.210423 -0.0199762 0
0 0 0
0.263254 -0.0133283 0
0.255604 -0.00694836 0
0.211505 -0.0203515 0
0.184925 -0.0299013 0
0.252352 -0.00482288 0
0.154344 -0.0290642 0
0.255564 -0.00845761 0
0.203379 -0.0253514 0
0.212683 -0.0207347 0
0.252347 -0.00561222 0
0.254734 -0.0164982 0
0.116682 -0.0225111 0
0.260024 -0.0134676 0
0.252339 -0.00662358 0
0.195989 -0.0287233 0
0.232269 -0.0184208 0
0.257851 -0.0122099 0
0.214558 -0.021263 0
0.255492 -0.0104319 0
0.208071 -0.0239421 0
0.252327 -0.00794031 0
0.208309 -0.0241495 0
0.208705 -0.0244462 0
0.21675 -0.0218059 0
0.261786 -0.0180341 0
0.255408 -0.0123725 0
0.261157 -0.0172647 0
0.252306 -0.00966787 0
0.200184 -0.0290254 0
0.20933 -0.0248709 0
0.258337 -0.0195189 0
0.259559 -0.0173762 0
0.220216 -0.0226046 0
0.252267 -0.0119354 0
0.255277 -0.014876 0
0.210267 -0.0254905 0
0.245483 -0.0217831 0
0.19637 -0.0314925 0
0.190734 -0.032338 0
0.204078 -0.0294397 0
0.257308 -0.0184731 0
0.224226 -0.0235119 0
0.185381 -0.033087 0
0.248882 -0.0112969 0
0.211703 -0.0263923 0
0.255124 -0.0173247 0
0.248886 -0.0116975 0
0.252193 -0.0148945 0
0.259543 -0.0225019 0
0.24889 -0.012094 0
0.259019 -0.0211428 0
0.248894 -0.0126015 0
0.248897 -0.0131041 0
0.248899 -0.0137601 0
0.208636 -0.029109 0
0.229879 -0.0249719 0
0.208765 -0.0292136 0
0.208893 -0.0293187 0
0.248899 -0.0144099 0
0.209073 -0.0294749 0
0.214039 -0.0277153 0
0.254891 -0.0204165 0
0.209252 -0.0296321 0
0.248897 -0.0152667 0
0.209508 -0.029862 0
0.252053 -0.0187053 0
0.248892 -0.0161153 0
0.209763 -0.0300941 0
0.210124 -0.0304293 0
0.196609 -0.034411 0
0.235635 -0.0267424 0
0.248881 -0.0172365 0
0.258924 -0.0262879 0
0.258229 -0.025692 0
0.210481 -0.0307693 0
0.25462 -0.0234244 0
0.248865 -0.0183457 0
0.254654 -0.0274408 0
0.206653 -0.0327129 0
0.210976 -0.0312533 0
0.256377 -0.0259598 0
0.218287 -0.0296768 0
0.248838 -0.0198046 0
0.204542 -0.0341643 0
0.211467 -0.0317472 0
0.185552 -0.036264 0
0.251794 -0.0235103 0
0.116639 -0.0242574 0
0.248804 -0.0212439 0
0.242222 -0.0294028 0
0.200788 -0.0357625 0
0.212166 -0.0324338 0
0.254221 -0.0271341 0
0.244788 -0.0188022 0
0.257323 -0.0300254 0
0.248748 -0.0231169 0
0.244794 -0.0196478 0
0.212889 -0.0331333 0
0.196674 -0.0373182 0
0.244797 -0.0206951 0
0.209041 -0.0349903 0
0.209248 -0.0352039 0
0.24868 -0.0249581 0
0.247318 -0.0323074 0
0.225969 -0.0327108 0
0.244797 -0.0220234 0
0.209556 -0.0355222 0
0.214042 -0.0340606 0
0.253761 -0.0307242 0
0.209999 -0.0359904 0
0.190997 -0.0385953 0
0.251329 -0.0294239 0
0.244788 -0.0237314 0
0.24857 -0.0273176 0
0.215306 -0.0350151 0
0.210618 -0.0366719 0
0.154253 -0.034482 0
0.255432 -0.0350681 0
0.204608 -0.0388372 0
0.244762 -0.0259374 0
0.25486 -0.0346317 0
0.185486 -0.039447 0
0.248439 -0.0296286 0
0.25123 -0.0361297 0
0.211456 -0.037655 0
0.217356 -0.0363178 0
0.196566 -0.0404011 0
0.253096 -0.0350387 0
0.244702 -0.028775 0
0 0 0
0.248239 -0.0325366 0
0.237187 -0.0374802 0
0.240561 -0.0262024 0
0.212559 -0.0390614 0
0.219782 -0.037719 0
0.240565 -0.0266548 0
0.240568 -0.0271038 0
0.0636335 -0.0138442 0
0.208904 -0.0407942 0
0.240571 -0.0276522 0
0.250525 -0.0365065 0
0.209004 -0.0409068 0
0.209104 -0.0410197 0
0.240573 -0.0281965 0
0.252589 -0.0397975 0
0.209247 -0.041187 0
0.244579 -0.0323869 0
0.248002 -0.0353725 0
0.240575 -0.0288783 0
0.209389 -0.0413552 0
0.252325 -0.0391817 0
0.20959 -0.0416008 0
0.240574 -0.0295544 0
0.20979 -0.0418483 0
0.223482 -0.0397689 0
0.240572 -0.0304165 0
0.214086 -0.041059 0
0.210069 -0.0422046 0
0.200492 -0.0432794 0
0.116122 -0.0261707 0
0.240567 -0.0312706 0
0.19628 -0.0434678 0
0.210343 -0.0425648 0
0.185163 -0.0426196 0
0.240556 -0.03237 0
0.210719 -0.0430763 0
0.247651 -0.0388686 0
0.204266 -0.0441475 0
0.20648 -0.043969 0
0.240541 -0.0334575 0
0.211085 -0.0435951 0
0.244347 -0.0369138 0
0.227791 -0.042124 0
0.240515 -0.0348592 0
0.251891 -0.044297 0
0.211577 -0.0443199 0
0.251235 -0.044073 0
0.190415 -0.0448689 0
0.216364 -0.043947 0
0.246515 -0.0446341 0
0.240482 -0.0362435 0
0.212047 -0.0450577 0
0.247242 -0.0422625 0
0.249182 -0.0447534 0
0.240429 -0.0380185 0
0.212659 -0.0460699 0
0.233062 -0.0455533 0
0.195784 -0.0467329 0
0.235466 -0.0347936 0
0.243928 -0.0424753 0
0.208201 -0.0473159 0
0.240363 -0.0397675 0
0.235472 -0.0357707 0
0.208364 -0.0475425 0
0.213245 -0.0471035 0
0.208603 -0.0478795 0
0.184613 -0.0457908 0
0.235474 -0.0369253 0
0.246653 -0.0463515 0
0.250003 -0.0487278 0
0.208945 -0.0483736 0
0.240259 -0.0419873 0
0.23547 -0.0383272 0
0.213983 -0.0484968 0
0.220284 -0.048256 0
0.20942 -0.0490885 0
0.203468 -0.0493805 0
0.237757 -0.0493444 0
0.235456 -0.040064 0
0.240136 -0.0441681 0
0.210061 -0.0501096 0
0.214687 -0.0499214 0
0.24598 -0.0503055 0
0.235423 -0.0422419 0
0.195103 -0.049975 0
0.243206 -0.0491515 0
0.239949 -0.0468958 0
0.210898 -0.0515508 0
0.115189 -0.0279403 0
0.152748 -0.0399903 0
0.247418 -0.0539584 0
0.215577 -0.0518442 0
0.199023 -0.0515894 0
0.235355 -0.0449836 0
0.247052 -0.0540798 0
0.241735 -0.0542182 0
0.183831 -0.0489429 0
0.239729 -0.0495662 0
0.211947 -0.0535634 0
0.24503 -0.0549539 0
0.206953 -0.0536631 0
0.230099 -0.043323 0
0.207029 -0.0537786 0
0.207104 -0.0538944 0
0.216451 -0.053848 0
0.18903 -0.0511473 0
0.230102 -0.0438539 0
0.22754 -0.0546045 0
0.207213 -0.0540655 0
0.235226 -0.0484229 0
0.207322 -0.0542372 0
0.230105 -0.044382 0
0.207477 -0.0544872 0
0.230107 -0.0449963 0
0.207631 -0.0547384 0
0.239405 -0.0528483 0
0.230107 -0.0456071 0
0.207847 -0.0550987 0
0.230106 -0.0463375 0
0.20806 -0.0554616 0
0.194158 -0.053431 0
0.230104 -0.0470634 0
0.202098 -0.0551902 0
0.243374 -0.0588409 0
0.208351 -0.0559746 0
0.242007 -0.0569622 0
0.230098 -0.0479513 0
0.213195 -0.0563539 0
0.208636 -0.0564928 0
0.218132 -0.0564646 0
0.234992 -0.0526948 0
0.230089 -0.048833 0
0.239029 -0.0560481 0
0.243939 -0.0594217 0
0.204059 -0.0563424 0
0 0 0
0.209016 -0.0572152 0
0.230073 -0.0499288 0
0.182833 -0.0520826 0
0.209385 -0.0579478 0
0.230053 -0.0510158 0
0.230021 -0.0523787 0
0.209859 -0.0589559 0
0.220244 -0.0593097 0
0.238492 -0.059904 0
0.229981 -0.0537285 0
0.234585 -0.0579212 0
0.210308 -0.0599844 0
0.21448 -0.060225 0
0.242948 -0.0642825 0
0.19303 -0.0568534 0
0.22992 -0.0554235 0
0.242487 -0.0646115 0
0.235815 -0.063402 0
0.113756 -0.0298973 0
0.210866 -0.0613832 0
0.204976 -0.0606211 0
0.229847 -0.0570989 0
0.20511 -0.0608541 0
0.237878 -0.0636484 0
0.205305 -0.0611999 0
0.223649 -0.0530997 0
0.223305 -0.0632431 0
0.240113 -0.0658733 0
0.205581 -0.0617057 0
0.211368 -0.0628234 0
0.229738 -0.0591931 0
0.223653 -0.0542679 0
0.200251 -0.060877 0
0.181629 -0.0551898 0
0.205963 -0.0624353 0
0.223652 -0.0555882 0
0.186876 -0.0574098 0
0.2339 -0.064193 0
0.196115 -0.0606306 0
0.229609 -0.061258 0
0.206473 -0.0634742 0
0.211943 -0.0647566 0
0.223642 -0.0571208 0
0.240865 -0.0695006 0
0.215901 -0.065634 0
0.23703 -0.0680608 0
0.223619 -0.058942 0
0.207126 -0.0649359 0
0.191585 -0.0604911 0
0.22668 -0.067705 0
0.229421 -0.0638141 0
0.212392 -0.0667503 0
0.14986 -0.0454927 0
0.223572 -0.0611448 0
0.229202 -0.0663266 0
0.207915 -0.0669706 0
0.061469 -0.0154014 0
0.236079 -0.0723276 0
0.223488 -0.0638382 0
0.180222 -0.0582699 0
0.212824 -0.0693419 0
0.232794 -0.0715513 0
0.228888 -0.0693935 0
0.237268 -0.074632 0
0.202427 -0.0673515 0
0.202487 -0.0674695 0
0.202547 -0.0675877 0
0.202635 -0.0677624 0
0.229688 -0.0735567 0
0.202723 -0.0679376 0
0.208781 -0.0697731 0
0.237231 -0.0756794 0
0.202849 -0.0681924 0
0.22334 -0.0671429 0
0.202973 -0.0684484 0
0.203147 -0.0688149 0
0.197708 -0.0670288 0
0.189959 -0.0640758 0
0.216834 -0.0629162 0
0.213128 -0.0719778 0
0.203318 -0.0691838 0
0.111935 -0.0316082 0
0.228529 -0.0723971 0
0.216836 -0.0635596 0
0.218301 -0.0733786 0
0.203552 -0.0697038 0
0.216838 -0.0642009 0
0.234773 -0.077219 0
0.203778 -0.0702284 0
0.216837 -0.064914 0
0.216834 -0.0656244 0
0.204079 -0.0709565 0
0.223089 -0.071184 0
0.216829 -0.0664349 0
0.199076 -0.0694739 0
0.204365 -0.0716929 0
0.216821 -0.0672421 0
0.209613 -0.0735791 0
0.228025 -0.0760009 0
0.183977 -0.0636239 0
0.216809 -0.0681851 0
0.178636 -0.0613006 0
0.2313 -0.0793889 0
0.213387 -0.07537 0
0.20473 -0.0726995 0
0.216792 -0.0691236 0
0.231066 -0.0799569 0
0.20507 -0.0737203 0
0.216768 -0.0702424 0
0.233293 -0.0819424 0
0 0 0
0.216739 -0.0713548 0
0.222674 -0.0760786 0
0.227455 -0.0795145 0
0.205482 -0.075094 0
0.216695 -0.0727003 0
0.187968 -0.0678588 0
0.213516 -0.0788717 0
0.216644 -0.0740365 0
0.205851 -0.0764888 0
0.191565 -0.0702302 0
0.210268 -0.0786402 0
0.216571 -0.075666 0
0.199041 -0.0745048 0
0.199154 -0.0747405 0
0.199317 -0.0750898 0
0.194695 -0.0729826 0
0.226676 -0.0836474 0
0.206258 -0.0783374 0