# vtk DataFile Version 3.0
File generated from DClib
ASCII

DATASET UNSTRUCTURED_GRID
POINTS 1909 float
50 0 0 
48.75 0 0 
50 1.66667 0 
47.5 0 0 
50 3.33333 0 
46.25 0 0 
50 5 0 
45 0 0 
43.75 0 0 
50 6.66667 0 
43 2 0 
42.5 0 0 
50 8.33333 0 
43 4.66667 0 
41.25 0 0 
41.075 2 0 
50 10 0 
40 0 0 
43 7.33333 0 
39.15 2 0 
38.75 0 0 
43 10 0 
37.5 0 0 
37.225 2 0 
36.25 0 0 
36 4 0 
35.3 2 0 
36 5 0 
35 0 0 
35.325 4 0 
36 6 0 
36 7 0 
34.65 4 0 
36 8 0 
33.75 0 0 
33.975 4 0 
36 9 0 
33.375 2 0 
33.3 4 0 
36 10 0 
32.5 0 0 
32.625 4 0 
33 6 0 
31.95 4 0 
33 7.45455 0 
31.45 2 0 
31.25 0 0 
31.95 6 0 
33 8.79545 0 
31.275 4 0 
33 10 0 
30.6 4 0 
30 0 0 
30.9 6 0 
29.925 4 0 
29.525 2 0 
29.85 6 0 
29.25 4 0 
28.75 0 0 
30 8 0 
30 8.45455 0 
28.575 4 0 
29.625 8 0 
30 8.90909 0 
28.8 6 0 
30 9.25 0 
29.782 8.90909 0 
30 9.59091 0 
29.9487 9.59091 0 
29.25 8 0 
29.7462 9.25 0 
30 9.79545 0 
29.897 9.59091 0 
29.564 8.90909 0 
29.9547 9.79545 0 
29.3462 8.45455 0 
29.84 9.59091 0 
30 10 0 
29.8975 9.79545 0 
29.9882 10 0 
29.9902 10.0098 0 
29.7827 9.59091 0 
29.9765 10 0 
29.9804 10.0196 0 
29.9667 10.0098 0 
29.9591 10 0 
29.9686 10.0196 0 
29.9659 10.0341 0 
29.9569 10.0196 0 
29.9418 10 0 
29.9395 10.0196 0 
29.9515 10.0485 0 
29.932 10.0098 0 
29.9424 10.0341 0 
29.8241 9.79545 0 
29.7181 9.59091 0 
29.9166 10 0 
29.9397 10.0485 0 
29.9222 10.0196 0 
29.9279 10.0485 0 
29.9305 10.0695 0 
29.8914 10 0 
29.9077 10.0341 0 
27.9 4 0 
29.897 10.0196 0 
29.9106 10.0485 0 
29.8817 10.0098 0 
29.907 10.0695 0 
29.8933 10.0485 0 
29.9095 10.0905 0 
29.8719 10.0196 0 
27.6 2 0 
29.8556 10 0 
29.8978 10.0905 0 
29.6531 9.59091 0 
29.3437 8.90909 0 
27.5 0 0 
29.8681 10.0485 0 
29.886 10.0905 0 
29.8574 10.0341 0 
29.4839 9.25 0 
29.8723 10.0695 0 
29.7289 9.79545 0 
29.836 10.0196 0 
29.8687 10.0905 0 
29.8197 10 0 
29.8797 10.1203 0 
29.843 10.0485 0 
29.8513 10.0905 0 
29.81 10.0098 0 
29.8561 10.1203 0 
29.8002 10.0196 0 
29.8221 10.0695 0 
29.8072 10.0485 0 
29.8262 10.0905 0 
29.5782 9.59091 0 
29.8498 10.1502 0 
29.7695 10 0 
29.7858 10.0341 0 
29.838 10.1502 0 
29.8215 10.1203 0 
29.8011 10.0905 0 
29.8262 10.1502 0 
29.7714 10.0485 0 
28.875 8 0 
29.75 10.0196 0 
29.8089 10.1502 0 
29.7654 10.0905 0 
29.7193 10 0 
29.7916 10.1502 0 
29.7505 10.0695 0 
29.8079 10.1921 0 
29.7713 10.1203 0 
29.7096 10.0098 0 
29.6047 9.79545 0 
29.503 9.59091 0 
29.7213 10.0485 0 
29.7665 10.1502 0 
29.6999 10.0196 0 
29.7844 10.1921 0 
29.7296 10.0905 0 
29.6856 10.0341 0 
29.7414 10.1502 0 
29.7497 10.1921 0 
29.6503 10 0 
29.7661 10.2339 0 
29.6712 10.0485 0 
29.6999 10.1203 0 
29.7543 10.2339 0 
29.6796 10.0905 0 
29.7057 10.1502 0 
29.7425 10.2339 0 
29.1235 8.90909 0 
29.6309 10.0196 0 
29.6504 10.0695 0 
29.4146 9.59091 0 
29.7252 10.2339 0 
29.6996 10.1921 0 
29.6701 10.1502 0 
29.7079 10.2339 0 
29.6296 10.0905 0 
29.5813 10 0 
29.6023 10.0485 0 
29.5716 10.0098 0 
29.6828 10.2339 0 
29.7086 10.2914 0 
29.2101 9.25 0 
29.562 10.0196 0 
29.6201 10.1502 0 
29.6578 10.2339 0 
29.4428 9.79545 0 
29.5999 10.1203 0 
29.6849 10.2914 0 
29.6283 10.1921 0 
29.5477 10.0341 0 
29.3259 9.59091 0 
29.5608 10.0905 0 
29.5335 10.0485 0 
29.6221 10.2339 0 
29.6503 10.2914 0 
29.5702 10.1502 0 
29.4881 10 0 
29.5128 10.0695 0 
29.6511 10.3489 0 
29.5866 10.2339 0 
29.6392 10.3489 0 
29.4689 10.0196 0 
29.6002 10.2914 0 
29.6273 10.3489 0 
29.4921 10.0905 0 
29.61 10.3489 0 
29.5286 10.1921 0 
29.5016 10.1502 0 
29.5368 10.2339 0 
29.5926 10.3489 0 
29.4405 10.0485 0 
29.2199 9.59091 0 
29.4626 10.1203 0 
29.3949 10 0 
28.9 8.90909 0 
29.5676 10.3489 0 
29.5291 10.2914 0 
29.3853 10.0098 0 
28.6923 8.45455 0 
29.487 10.2339 0 
29.5426 10.3489 0 
29.3758 10.0196 0 
29.5734 10.4266 0 
29.4331 10.1502 0 
29.3993 10.0905 0 
28.5 8 0 
29.3617 10.0341 0 
29.5496 10.4266 0 
29.5071 10.3489 0 
29.2327 9.79545 0 
29.3475 10.0485 0 
29.1136 9.59091 0 
29.4187 10.2339 0 
29.5148 10.4266 0 
29.4716 10.3489 0 
29.3918 10.1921 0 
29.3271 10.0695 0 
29.4298 10.2914 0 
29.2714 10 0 
29.3406 10.1502 0 
28.9208 9.25 0 
29.3066 10.0905 0 
29.4648 10.4266 0 
29.422 10.3489 0 
29.4958 10.5042 0 
29.2524 10.0196 0 
27.75 6 0 
29.3504 10.2339 0 
29.4837 10.5042 0 
29.4718 10.5042 0 
29.2774 10.1203 0 
29.4543 10.5042 0 
29.3724 10.3489 0 
29.2244 10.0485 0 
29.4369 10.5042 0 
29.3938 10.4266 0 
28.9853 9.59091 0 
29.2481 10.1502 0 
28.6766 8.90909 0 
29.4119 10.5042 0 
29.2934 10.2914 0 
27.225 4 0 
29.148 10 0 
29.2582 10.2339 0 
29.1837 10.0905 0 
29.3869 10.5042 0 
29.1385 10.0098 0 
29.3044 10.3489 0 
29.1291 10.0196 0 
29.2072 10.1921 0 
29.3514 10.5042 0 
29.1152 10.0341 0 
29.3929 10.6071 0 
29.2949 10.4266 0 
29.1013 10.0485 0 
29.3686 10.6071 0 
29.316 10.5042 0 
29.2364 10.3489 0 
28.9623 9.79545 0 
29.1257 10.1502 0 
29.1662 10.2339 0 
29.0811 10.0695 0 
28.8566 9.59091 0 
29.3336 10.6071 0 
29.2666 10.5042 0 
29.0609 10.0905 0 
28.9875 10 0 
29.2835 10.6071 0 
29.1448 10.3489 0 
29.0321 10.1203 0 
29.2173 10.5042 0 
29.1098 10.2914 0 
28.125 8 0 
28.9688 10.0196 0 
29.1594 10.4266 0 
28.611 9.25 0 
29.29 10.71 0 
28.4486 8.90909 0 
29.0443 10.2339 0 
29.0033 10.1502 0 
29.2777 10.71 0 
28.9413 10.0485 0 
29.2128 10.6071 0 
29.2655 10.71 0 
29.1497 10.5042 0 
29.2478 10.71 0 
28.7003 9.59091 0 
29.0533 10.3489 0 
29.2303 10.71 0 
28.9629 10.1921 0 
28.9013 10.0905 0 
29.2051 10.71 0 
29.0822 10.5042 0 
29.1801 10.71 0 
28.827 10 0 
29.1144 10.6071 0 
28.8177 10.0098 0 
28.9225 10.2339 0 
28.8085 10.0196 0 
29.1447 10.71 0 
28.7949 10.0341 0 
28.8443 10.1502 0 
28.977 10.4266 0 
28.9322 10.3489 0 
29.1094 10.71 0 
28.7813 10.0485 0 
28.9912 10.5042 0 
29.1562 10.8438 0 
28.5436 9.59091 0 
28.7615 10.0695 0 
28.8669 10.2914 0 
29.1313 10.8438 0 
28.6184 9.79545 0 
29.0602 10.71 0 
28.2207 8.90909 0 
28.7418 10.0905 0 
28.0378 8.45455 0 
28.9798 10.6071 0 
29.0958 10.8438 0 
29.0112 10.71 0 
28.9005 10.5042 0 
28.7136 10.1203 0 
28.7644 10.2339 0 
28.8113 10.3489 0 
29.0454 10.8438 0 
28.6223 10 0 
28.6854 10.1502 0 
28.2746 9.25 0 
28.9441 10.71 0 
28.6042 10.0196 0 
27.75 8 0 
28.9747 10.8438 0 
28.6459 10.1921 0 
28.5773 10.0485 0 
29.0225 10.9775 0 
28.3532 9.59091 0 
28.7804 10.5042 0 
28.736 10.4266 0 
28.8772 10.71 0 
29.0097 10.9775 0 
28.9971 10.9775 0 
28.799 10.6071 0 
28.9791 10.9775 0 
28.5384 10.0905 0 
28.6064 10.2339 0 
28.6543 10.3489 0 
28.9611 10.9775 0 
28.8769 10.8438 0 
27.9867 8.90909 0 
26.25 0 0 
28.9358 10.9775 0 
28.7871 10.71 0 
28.9106 10.9775 0 
28.6607 10.5042 0 
28.4177 10 0 
26.55 4 0 
28.552 10.2914 0 
28.483 10.1502 0 
28.4087 10.0098 0 
28.8751 10.9775 0 
28.3998 10.0196 0 
28.3866 10.0341 0 
28.8399 10.9775 0 
28.6974 10.71 0 
28.3735 10.0485 0 
28.1625 9.59091 0 
28.7436 10.8438 0 
28.4976 10.3489 0 
28.3543 10.0695 0 
28.791 10.9775 0 
28.4052 10.2339 0 
28.3352 10.0905 0 
28.8519 11.1481 0 
28.1869 9.79545 0 
28.5607 10.6071 0 
28.5053 10.5042 0 
28.7423 10.9775 0 
28.8258 11.1481 0 
28.308 10.1203 0 
28.5787 10.71 0 
27.904 9.25 0 
28.7893 11.1481 0 
28.424 10.4266 0 
27.7528 8.90909 0 
28.2807 10.1502 0 
28.6758 10.9775 0 
27.375 8 0 
28.7383 11.1481 0 
28.1619 10 0 
28.5649 10.8438 0 
28.2425 10.1921 0 
28.6096 10.9775 0 
28.1444 10.0196 0 
28.298 10.3489 0 
28.4605 10.71 0 
26.7 6 0 
27.9315 9.59091 0 
28.3503 10.5042 0 
28.6676 11.1481 0 
28.1187 10.0485 0 
28.2042 10.2339 0 
28.5207 10.9775 0 
28.0813 10.0905 0 
28.6814 11.3186 0 
27.3818 8.45455 0 
28.6679 11.3186 0 
28.1516 10.2914 0 
28.5703 11.1481 0 
28.6544 11.3186 0 
28.6358 11.3186 0 
27.5109 8.90909 0 
28.3072 10.71 0 
28.6173 11.3186 0 
28.2524 10.6071 0 
28.4322 10.9775 0 
28.028 10.1502 0 
28.5915 11.3186 0 
28.0989 10.3489 0 
28.33 10.8438 0 
28.5658 11.3186 0 
28.153 10.5042 0 
27.9061 10 0 
27.8975 10.0098 0 
28.5303 11.3186 0 
28.4384 11.1481 0 
27.7002 9.59091 0 
27.889 10.0196 0 
27.8765 10.0341 0 
28.4949 11.3186 0 
28.3154 10.9775 0 
27.9532 10.2339 0 
27.8639 10.0485 0 
28.0276 10.4266 0 
28.1544 10.71 0 
27.8457 10.0695 0 
27.4909 9.25 0 
28.4463 11.3186 0 
27 8 0 
27.8275 10.0905 0 
28.3979 11.3186 0 
27.8015 10.1203 0 
27.6542 9.79545 0 
25.675 2 0 
28.1991 10.9775 0 
27.2691 8.90909 0 
27.9563 10.5042 0 
28.4682 11.5318 0 
28.2625 11.1481 0 
27.7755 10.1502 0 
28.3322 11.3186 0 
27.8502 10.3489 0 
28.4401 11.5318 0 
25.875 4 0 
27.7391 10.1921 0 
28.4019 11.5318 0 
28.0268 10.8438 0 
28.2668 11.3186 0 
27.9602 10.71 0 
28.3498 11.5318 0 
27.4223 9.59091 0 
27.7026 10.2339 0 
27.5927 10 0 
28.0486 10.9775 0 
27.8616 10.6071 0 
27.5762 10.0196 0 
28.1794 11.3186 0 
28.2786 11.5318 0 
27.5519 10.0485 0 
27.6524 10.2914 0 
28.0319 11.1481 0 
27.7108 10.5042 0 
27.5167 10.0905 0 
27.0169 8.90909 0 
28.0924 11.3186 0 
27.6021 10.3489 0 
27.8988 10.9775 0 
28.1818 11.5318 0 
27.7667 10.71 0 
26.625 8 0 
28.255 11.745 0 
27.4664 10.1502 0 
28.2402 11.745 0 
28.2256 11.745 0 
28.2059 11.745 0 
27.978 11.3186 0 
26.7234 8.45455 0 
27.0259 9.25 0 
27.5342 10.4266 0 
28.1863 11.745 0 
27.1442 9.59091 0 
28.0516 11.5318 0 
28.1598 11.745 0 
27.3959 10.2339 0 
28.1334 11.745 0 
27.2793 10 0 
27.2714 10.0098 0 
27.2635 10.0196 0 
27.7086 10.9775 0 
27.6431 10.8438 0 
28.0975 11.745 0 
27.8643 11.3186 0 
27.4661 10.5042 0 
27.2518 10.0341 0 
27.2401 10.0485 0 
28.0617 11.745 0 
26.7648 8.90909 0 
27.5255 10.71 0 
27.7353 11.1481 0 
27.2231 10.0695 0 
28.0133 11.745 0 
27.2061 10.0905 0 
27.8791 11.5318 0 
27.2986 10.3489 0 
27.1818 10.1203 0 
27.9651 11.745 0 
27.3758 10.6071 0 
27.0077 9.79545 0 
27.7174 11.3186 0 
27.1576 10.1502 0 
25 0 0 
27.5193 10.9775 0 
27.9003 11.745 0 
27.1236 10.1921 0 
26.25 8 0 
27.9939 12.0061 0 
25.65 6 0 
27.8359 11.745 0 
26.8136 9.59091 0 
27.0896 10.2339 0 
27.9626 12.0061 0 
27.2853 10.71 0 
25.2 4 0 
27.5713 11.3186 0 
27.9218 12.0061 0 
26.4998 8.90909 0 
27.167 10.5042 0 
27.6541 11.5318 0 
27.0427 10.2914 0 
27.7503 11.745 0 
26.9033 10 0 
27.8677 12.0061 0 
26.8882 10.0196 0 
26.8659 10.0485 0 
26.9958 10.3489 0 
27.2836 10.9775 0 
27.6652 11.745 0 
27.3609 11.1481 0 
27.7955 12.0061 0 
26.499 9.25 0 
[...]
POINT_DATA 1909
SCALARS phi float 1
LOOKUP_TABLE default
VECTORS Displacement float
0 0 0
0 0 0
0 -0.000244598 0
0 0 0
0 -9.44415e-05 0
0 0 0
0 0.000404258 0
0 0 0
0 0 0
0 0.00121065 0
0.00228988 -0.000111549 0
0 0 0
0 0.00230654 0
0.00438814 0.000776983 0
0 0 0
0.00306762 -0.000113308 0
0 0.0036391 0
0 0 0
0.00583835 0.00259211 0
0.00388596 -0.000129704 0
0 0 0
0.00670452 0.00498775 0
0 0 0
0.00472449 -0.000169591 0
0 0 0
0.00889876 0.000522834 0
0.00554115 -0.000229189 0
0.0106465 0.00118626 0
0 0 0
0.00952314 0.000476231 0
0.0119315 0.00204903 0
0.0128481 0.00304681 0
0.0101081 0.000428637 0
0.013526 0.00410598 0
0 0 0
0.0106814 0.000357192 0
0.0139339 0.00519769 0
0.00629926 -0.000304338 0
0.0112256 0.000281347 0
0.0141404 0.0062709 0
0 0 0
0.0117415 0.000193159 0
0.0153242 0.0016772 0
0.012228 9.96176e-05 0
0.0170629 0.0032152 0
0.00696986 -0.000393418 0
0 0 0
0.0164823 0.00123865 0
0.0180302 0.00497861 0
0.012683 -2.97314e-06 0
0.0181401 0.00680883 0
0.0131045 -0.000111285 0
0 0 0
0.0174058 0.000853426 0
0.0134934 -0.000227735 0
0.0075274 -0.000497095 0
0.0181866 0.000457643 0
0.0138452 -0.000351077 0
0 0 0
0.0214189 0.00183094 0
0.0220546 0.00224795 0
0.0141625 -0.000482048 0
0.021776 0.00155836 0
0.0226985 0.00271587 0
0.0188378 3.2634e-05 0
0.0231132 0.00315241 0
0.022969 0.00250411 0
0.0234834 0.00366381 0
0.023567 0.00354832 0
0.0220952 0.00129263 0
0.0234527 0.00283471 0
0.02368 0.00401098 0
0.0236403 0.00344445 0
0.0232172 0.00228768 0
0.023758 0.00385018 0
0.0227324 0.00169684 0
0.023712 0.00334116 0
0.0237765 0.00441751 0
0.023848 0.0037 0
0.0238091 0.00436542 0
0.0239256 0.00438914 0
0.0237803 0.00324798 0
0.023844 0.0043204 0
0.0240486 0.00436002 0
0.0239633 0.00430916 0
0.0238947 0.00426324 0
0.0240558 0.00432689 0
0.0241959 0.00432359 0
0.0240701 0.00429405 0
0.0239458 0.00421167 0
0.0240983 0.00424651 0
0.0243239 0.00429419 0
0.0240415 0.00420768 0
0.0242089 0.00427135 0
0.023964 0.00356056 0
0.0238573 0.00315808 0
0.0240179 0.00414253 0
0.0243278 0.00427253 0
0.0241314 0.00420086 0
0.024335 0.00424867 0
0.0244889 0.00425799 0
0.0240878 0.00408 0
0.024256 0.00418803 0
0.0144389 -0.000622082 0
0.0241845 0.00413709 0
0.0243513 0.00421082 0
0.0241642 0.00407984 0
0.0244967 0.00421642 0
0.0243715 0.00417247 0
0.024636 0.00422359 0
0.0242387 0.00407759 0
0.00794496 -0.000617254 0
0.0241813 0.00399816 0
0.024638 0.00420488 0
0.023935 0.00307623 0
0.0234545 0.00207873 0
0 0 0
0.0244067 0.0041163 0
0.0246421 0.00418488 0
0.0243446 0.00407126 0
0.0237499 0.00253366 0
0.0245239 0.00414774 0
0.0241158 0.00342363 0
0.0243159 0.00399793 0
0.0246512 0.00415389 0
0.0242689 0.00392323 0
0.0248224 0.00417726 0
0.0244452 0.00406212 0
0.0246634 0.00412176 0
0.0243302 0.0039246 0
0.024827 0.00414174 0
0.0243909 0.00392464 0
0.0245827 0.00404582 0
0.0245037 0.00398767 0
0.0246856 0.00407426 0
0.0240268 0.00299045 0
0.0249902 0.00413392 0
0.0243808 0.00382953 0
0.0244783 0.00392228 0
0.0249917 0.00411766 0
0.0248432 0.00408462 0
0.0247112 0.00402696 0
0.0249942 0.00410074 0
0.0245633 0.00391779 0
0.0224058 0.00102298 0
0.0244891 0.00383087 0
0.0249998 0.00407476 0
0.0247525 0.00396027 0
0.0244833 0.00374139 0
0.0250073 0.0040479 0
0.0246826 0.00390831 0
0.025202 0.00407691 0
0.0248807 0.00399797 0
0.0245333 0.00374275 0
0.0243065 0.00327141 0
0.0241204 0.00290783 0
0.0246455 0.00382628 0
0.0250211 0.00400797 0
0.024583 0.00374329 0
0.025205 0.00404608 0
0.0247965 0.00389603 0
0.0246549 0.0037425 0
0.0250377 0.00396738 0
0.0252149 0.00399759 0
0.0246102 0.00363385 0
0.0253929 0.0040232 0
0.0247259 0.00374024 0
0.0249508 0.00387523 0
0.0253939 0.00400882 0
0.0248607 0.00380923 0
0.0250654 0.00390917 0
0.0253956 0.00399404 0
0.0236737 0.00187289 0
0.0246988 0.00363437 0
0.0248271 0.00373457 0
0.0242299 0.00281365 0
0.0253991 0.00397159 0
0.0252386 0.00392353 0
0.025096 0.00385147 0
0.0254038 0.00394852 0
0.0249256 0.00372654 0
0.0247253 0.00352921 0
0.0248292 0.00363097 0
0.024767 0.00352949 0
0.0254125 0.00391416 0
0.0256298 0.00395308 0
0.0240471 0.00225423 0
0.0248086 0.0035293 0
0.0251429 0.00377148 0
0.0254231 0.00387901 0
0.0245365 0.00308421 0
0.0250616 0.00371169 0
0.0256318 0.00392535 0
0.0252854 0.00381525 0
0.0248686 0.00352806 0
0.0243404 0.00271951 0
0.0250128 0.0036185 0
0.0249282 0.00352586 0
0.025441 0.00382802 0
0.0256381 0.00388254 0
0.0251918 0.00369362 0
0.0248652 0.00340051 0
0.0250139 0.00352098 0
0.0258426 0.00388577 0
0.0254615 0.00377644 0
0.0258434 0.00387248 0
0.0249395 0.00339874 0
0.025653 0.00381736 0
0.0258446 0.00385894 0
0.0250983 0.00351436 0
0.0258469 0.00383859 0
0.0253653 0.00366427 0
0.025261 0.00358894 0
0.0254937 0.00370369 0
0.0258499 0.00381778 0
0.0250497 0.00339345 0
0.0244676 0.002606 0
0.0252161 0.00350211 0
0.024992 0.00327182 0
0.0238827 0.00166606 0
0.0258554 0.00378692 0
0.0256833 0.00372054 0
0.0250275 0.00327052 0
0.0233126 0.00117463 0
0.0255287 0.00363116 0
0.0258621 0.00375533 0
0.025063 0.00326892 0
0.0261007 0.00379752 0
0.0253306 0.00348708 0
0.0252065 0.00338061 0
0.022692 0.00074481 0
0.025114 0.00326601 0
0.0261022 0.00377116 0
0.0258735 0.00370931 0
0.0248052 0.00284026 0
0.0251648 0.00326248 0
0.0245935 0.00249053 0
0.02558 0.00353149 0
0.0261062 0.00373115 0
0.0258868 0.00366233 0
0.0254854 0.00346197 0
0.0252381 0.00325622 0
0.025738 0.00358134 0
0.0251445 0.00310961 0
0.0254223 0.00335323 0
0.0243447 0.00196296 0
0.0253106 0.00324874 0
0.0261156 0.00367082 0
0.0259082 0.00359538 0
0.0263304 0.00371048 0
0.0252084 0.00310483 0
0.0193511 -0.000426089 0
0.0256332 0.00343291 0
0.026331 0.0036974 0
0.0263318 0.00368418 0
0.0254124 0.00323602 0
0.0263334 0.00366452 0
0.0259319 0.00352748 0
0.0253028 0.00309599 0
0.0263354 0.00364455 0
0.0261349 0.00358104 0
0.024737 0.00234787 0
0.0255121 0.00322114 0
0.0240805 0.00145581 0
0.0263389 0.00361514 0
0.0258257 0.00338781 0
0.0146776 -0.000768891 0
0.0252837 0.00294495 0
0.0257062 0.00330057 0
0.0254377 0.00307962 0
0.0263432 0.00358514 0
0.0253142 0.00294193 0
0.0259678 0.0034329 0
0.0253447 0.00293872 0
0.0256481 0.00319688 0
0.0263504 0.00354154 0
0.0253888 0.00293363 0
0.0265999 0.00359525 0
0.0261708 0.00345014 0
0.0254326 0.00292811 0
0.026601 0.00356844 0
0.0263589 0.00349699 0
0.026006 0.00333772 0
0.0251095 0.00251569 0
0.0256246 0.0030496 0
0.0257794 0.00316915 0
0.0254958 0.00291934 0
0.0248758 0.00220188 0
0.0266038 0.00352852 0
0.0263725 0.0034333 0
0.0255583 0.0029097 0
0.0254489 0.00273376 0
0.0266098 0.00346918 0
0.0260605 0.00320799 0
0.0256463 0.00289449 0
0.0263881 0.00336828 0
0.0259524 0.00312601 0
0.0229621 0.000454441 0
0.0255043 0.00272578 0
0.0262313 0.00326401 0
0.0246379 0.0016419 0
0.0268356 0.00347838 0
0.0242691 0.00123691 0
0.0258741 0.002996 0
0.0257329 0.00287766 0
0.0268361 0.00346462 0
0.0255858 0.00271273 0
0.0266219 0.00338165 0
0.0268367 0.00345078 0
0.0264119 0.0032771 0
0.0268378 0.00343051 0
0.0250325 0.00202021 0
0.0261163 0.00307783 0
0.0268391 0.00341002 0
0.0258514 0.00285144 0
0.0257021 0.00269128 0
0.0268414 0.0033802 0
0.0264379 0.00318435 0
0.0268441 0.00334994 0
0.0255999 0.00251844 0
0.0266448 0.00325411 0
0.0256262 0.00251375 0
0.0259666 0.0028224 0
0.0256523 0.00250892 0
0.0268487 0.0033063 0
0.0256903 0.00250155 0
0.0258637 0.00265573 0
0.0263237 0.00300613 0
0.0261911 0.00290411 0
0.026854 0.00326188 0
0.0257282 0.00249386 0
0.0264758 0.00305691 0
0.0270996 0.00332261 0
0.0251803 0.0018343 0
0.0257826 0.00248216 0
0.0261194 0.00277813 0
0.0271005 0.00329352 0
0.0254418 0.00208524 0
0.0268625 0.0031986 0
0.0244441 0.00101247 0
0.0258365 0.00246983 0
0.0237908 0.000607572 0
0.0266844 0.00307149 0
0.0271024 0.00325113 0
0.0268723 0.00313406 0
0.0265156 0.00292779 0
0.0259123 0.00245115 0
0.0260806 0.00259689 0
0.0262654 0.00272937 0
0.0271063 0.0031893 0
0.0257751 0.00224217 0
0.025987 0.00243125 0
0.024921 0.00127899 0
0.0268874 0.00304357 0
0.0258229 0.00223103 0
0.0232014 0.000155793 0
0.0271139 0.00309946 0
0.0260894 0.00240133 0
0.0258927 0.00221364 0
0.0273225 0.0031611 0
0.0253443 0.00160338 0
0.0265704 0.00275402 0
0.0264519 0.00265713 0
0.0269041 0.00295127 0
0.0273229 0.0031457 0
0.0273234 0.00313028 0
0.0267473 0.00281555 0
0.0273242 0.00310813 0
0.0259925 0.00218652 0
0.0261893 0.00236916 0
0.0263593 0.00250066 0
0.0273251 0.00308588 0
0.0271279 0.00296993 0
0.0246085 0.000776934 0
0 0 0
0.0273266 0.00305396 0
0.0269288 0.00282421 0
0.0273283 0.00302175 0
0.0266259 0.00257833 0
0.0259332 0.00196092 0
0.0148715 -0.000928233 0
0.0263222 0.00232138 0
0.026131 0.00214405 0
0.0259555 0.00195465 0
0.0273311 0.00297584 0
0.0259777 0.00194826 0
0.0260102 0.00193866 0
0.0273344 0.00292936 0
0.0269551 0.00269484 0
0.0260425 0.00192881 0
0.0254945 0.00136773 0
0.0271524 0.00278548 0
0.0264499 0.00226976 0
0.0260889 0.00191411 0
0.0273396 0.00286374 0
0.0263174 0.00207743 0
0.0261348 0.00189892 0
0.0275548 0.00294592 0
0.0257857 0.0015235 0
0.0268382 0.00246513 0
0.0266978 0.0023469 0
0.0273454 0.0027971 0
0.0275555 0.00291249 0
0.0261994 0.00187643 0
0.026992 0.00252023 0
0.0251871 0.000863449 0
0.0275569 0.00286509 0
0.0266139 0.00219439 0
0.0247565 0.000535613 0
0.026263 0.00185296 0
0.0273544 0.00270424 0
0.0234135 -0.000152411 0
0.0275594 0.00279749 0
0.0261092 0.00160485 0
0.0271919 0.00252712 0
0.0263503 0.0018185 0
0.0273644 0.00260977 0
0.0261496 0.00159065 0
0.0265581 0.00197317 0
0.0270299 0.00234297 0
0.0197163 -0.000921725 0
0.0256562 0.00107719 0
0.0267679 0.002113 0
0.027564 0.00270113 0
0.0262087 0.00156899 0
0.0264355 0.00178222 0
0.0273791 0.00248017 0
0.0262929 0.00153606 0
0.0277365 0.00271943 0
0.0241714 5.96034e-06 0
0.0277368 0.00270125 0
0.026549 0.00172942 0
0.0275721 0.00256445 0
0.0277372 0.00268309 0
0.0277377 0.00265774 0
0.0248924 0.000281139 0
0.0270797 0.00210875 0
0.0277383 0.00263234 0
0.0269569 0.00199671 0
0.0273948 0.0023483 0
0.0264098 0.00148613 0
0.0277393 0.00259668 0
0.0266583 0.00167341 0
0.0272501 0.00217255 0
0.0277404 0.00256086 0
0.0268527 0.00181153 0
0.0262623 0.00124372 0
0.0262809 0.00123594 0
0.0277421 0.00251061 0
0.0275859 0.00237233 0
0.025798 0.000781786 0
0.0262995 0.00122807 0
0.0263267 0.00121632 0
0.027744 0.00246 0
0.0274169 0.00217064 0
0.026567 0.00141044 0
0.0263537 0.00120437 0
0.026799 0.0015929 0
0.0271287 0.0018716 0
0.0263924 0.00118671 0
0.0254275 0.000384121 0
0.0277468 0.00238947 0
0.0235921 -0.00046844 0
0.0264308 0.00116866 0
0.02775 0.00231823 0
0.0264848 0.00114226 0
0.0261122 0.000806794 0
0.00819116 -0.000755305 0
0.0274396 0.00199015 0
0.0250101 2.15643e-05 0
0.0269316 0.00150706 0
0.0278998 0.00241987 0
0.0276077 0.00210575 0
0.0265378 0.00111508 0
0.0277547 0.00221995 0
0.0267702 0.00129588 0
0.0279004 0.00237944 0
0.015023 -0.00109228 0
0.0266106 0.00107572 0
0.0279013 0.00232404 0
0.0273273 0.00169717 0
0.0277598 0.00212047 0
0.0271884 0.00156525 0
0.0279029 0.00224722 0
0.0259425 0.00042175 0
0.0266816 0.00103486 0
0.0264206 0.000795944 0
0.0274695 0.00175185 0
0.0270948 0.0013856 0
0.0264541 0.000778835 0
0.0277672 0.00198505 0
0.0279054 0.00214022 0
0.026503 0.000753019 0
0.0267763 0.000976287 0
0.0276392 0.00174211 0
0.0270195 0.00112326 0
0.0265725 0.000714375 0
0.0251142 -0.000253459 0
0.0277749 0.00184783 0
0.0268673 0.000915007 0
0.0274986 0.00151045 0
0.0279093 0.00199145 0
0.0272436 0.00125592 0
0.0237409 -0.000793979 0
0.0280009 0.00210147 0
0.0266688 0.000656867 0
0.0280011 0.00207894 0
0.0280014 0.00205647 0
0.0280018 0.00202622 0
0.0277853 0.00166403 0
0.0244439 -0.000630025 0
0.0256298 -0.000170933 0
0.0269845 0.000828101 0
0.0280022 0.00199599 0
0.0260603 5.71671e-05 0
0.0279154 0.00178592 0
0.0280028 0.00195472 0
0.026798 0.000571627 0
0.0280034 0.00191341 0
0.0265475 0.00034386 0
0.0265627 0.000334656 0
0.0265778 0.000325381 0
0.0275336 0.00119866 0
0.027416 0.00107594 0
0.0280042 0.00185672 0
0.0277958 0.00147783 0
0.027095 0.000736567 0
0.0266 0.000311576 0
0.026622 0.000297619 0
0.028005 0.00179984 0
0.025199 -0.00053265 0
0.0273044 0.000865628 0
0.0276794 0.00125637 0
0.0266536 0.00027711 0
0.0280062 0.00172195 0
0.0266849 0.000256282 0
0.0279239 0.00150493 0
0.0269647 0.000445685 0
0.0267288 0.000226052 0
0.0280074 0.00164365 0
0.0272309 0.000608434 0
0.0263771 -8.44598e-05 0
0.0278088 0.00123305 0
0.0267719 0.000195179 0
0 0 0
0.0275647 0.000883955 0
0.028009 0.00153714 0
0.0268309 0.000150888 0
0.0238544 -0.00112675 0
0.028047 0.00168558 0
0.0199241 -0.00145688 0
0.0280105 0.00142988 0
0.0261671 -0.00038062 0
0.0268884 0.000105361 0
0.0280475 0.00163433 0
0.0273547 0.000472853 0
0.0151253 -0.00127398 0
0.0278206 0.00098555 0
0.0280481 0.001567 0
0.0252682 -0.000829959 0
0.0271685 0.000260326 0
0.0279345 0.0011263 0
0.0269648 4.07651e-05 0
0.0280124 0.00128555 0
0.0266599 -0.000203321 0
0.0280489 0.00147681 0
0.026687 -0.000223145 0
0.0267263 -0.000252858 0
0.0270382 -2.61041e-05 0
0.027597 0.000487002 0
0.028014 0.00114005 0
0.0277213 0.00062324 0
0.0280497 0.00135474 0
0.0257763 -0.000813968 0
0.026782 -0.000296927 0
0.0274977 0.000286063 0
0.0278331 0.000666917 0
0.0271323 -0.00011992 0
0.0280504 0.00118907 0
0.0280155 0.000946981 0
0.0268591 -0.000361723 0
0.0274003 -1.07217e-05 0
0.0253174 -0.00113053 0
0.0246044 -0.00129651 0
0.0262389 -0.000822114 0
0.0279439 0.000625406 0
0.0272208 -0.00021771 0
0.0239362 -0.00146747 0
0.0280185 0.00124098 0
0.0269621 -0.00045633 0
0.0280162 0.000752322 0
0.0280187 0.00121181 0
0.0280506 0.000964896 0
0.0276203 8.80089e-05 0
0.0280189 0.00118274 0
0.0278418 0.000345815 0
0.0280191 0.0011453 0
0.0280193 0.00110795 0
0.0280195 0.00105877 0
0.0267299 -0.000752962 0
0.0273291 -0.000353239 0
0.0267419 -0.000763468 0
0.0267539 -0.000774031 0
0.0280196 0.00100964 0
0.0267715 -0.000789712 0
0.027094 -0.000593693 0
0.0280157 0.000498351 0
0.026789 -0.000805517 0
0.0280197 0.000944179 0
0.026814 -0.000828654 0
0.0280491 0.000664008 0
0.0280197 0.000878696 0
0.0268387 -0.000852053 0
0.0268733 -0.000885845 0
0.025348 -0.00145218 0
0.0274271 -0.000495334 0
0.0280195 0.000791069 0
0.0277478 -0.000179736 0
0.0278466 -5.81879e-05 0
0.0269072 -0.000920165 0
0.0280133 0.000242592 0
0.0280191 0.000703312 0
0.0276352 -0.000402826 0
0.0265209 -0.00116245 0
0.0269536 -0.000969094 0
0.0279443 -2.25129e-05 0
0.027254 -0.000792107 0
0.0280182 0.000586145 0
0.0262819 -0.00134279 0
0.0269986 -0.00101904 0
0.023982 -0.00181444 0
0.0280435 0.000265074 0
0.0151788 -0.00145563 0
0.0280169 0.000468689 0
0.0275391 -0.000689487 0
0.0258433 -0.00155644 0
0.0270581 -0.00108938 0
0.0280069 -8.46391e-05 0
0.0278916 0.000670059 0
0.0278433 -0.000463536 0
0.0280145 0.00031302 0
0.027892 0.000602512 0
0.027115 -0.00116162 0
0.0253576 -0.00177629 0
0.0278923 0.000517903 0
0.0267599 -0.00140126 0
0.0267812 -0.00142348 0
0.0280114 0.000156872 0
0.0276337 -0.00089384 0
0.0274331 -0.00107696 0
0.0278923 0.000409203 0
0.0268119 -0.00145664 0
0.0271876 -0.00126211 0
0.0279964 -0.000413306 0
0.0268555 -0.00150552 0
0.0246537 -0.00198867 0
0.0280285 -0.000255267 0
0.0278917 0.000267176 0
0.028006 -4.77182e-05 0
0.0272552 -0.00136596 0
0.0269153 -0.00157682 0
0.0199669 -0.00203392 0
0.0278273 -0.000961082 0
0.0262806 -0.0018656 0
0.0278897 8.00092e-05 0
0.0279196 -0.000839099 0
0.0239958 -0.00216756 0
0.0279992 -0.000252924 0
0.0277292 -0.00116837 0
0.0269947 -0.00167985 0
0.0273372 -0.00150864 0
0.025345 -0.00212449 0
0.027977 -0.000824725 0
0.0278852 -0.000166968 0
0 0 0
0.0279883 -0.000517827 0
0.027609 -0.00148231 0
0.02768 5.8856e-05 0
0.0270953 -0.00182752 0
0.0274103 -0.00165697 0
0.0276801 1.98329e-05 0
0.0276802 -1.90695e-05 0
0.00823078 -0.00090907 0
0.0267355 -0.00204852 0
0.0276803 -6.67469e-05 0
0.027995 -0.000920279 0
0.0267449 -0.00206014 0
0.0267541 -0.00207179 0
0.0276802 -0.000114303 0
0.0277968 -0.00145774 0
0.0267677 -0.00208907 0
0.0278759 -0.000491339 0
0.0279747 -0.000783255 0
0.02768 -0.000174206 0
0.0267812 -0.00210644 0
0.0279499 -0.0012363 0
0.0268005 -0.00213182 0
0.0276797 -0.00023399 0
0.0268196 -0.0021574 0
0.0274921 -0.00185798 0
0.027679 -0.000310749 0
0.0272154 -0.00203771 0
0.0268462 -0.00219423 0
0.025801 -0.0024073 0
0.0151771 -0.00166144 0
0.0276781 -0.000387394 0
0.0253101 -0.00247437 0
0.0268721 -0.00223148 0
0.0239742 -0.00252561 0
0.0276767 -0.000486885 0
0.0269075 -0.00228436 0
0.0279536 -0.00111984 0
0.02623 -0.00246933 0
0.0264731 -0.00242775 0
0.0276748 -0.000586271 0
0.0269416 -0.00233808 0
0.0278579 -0.000913209 0
0.0275589 -0.00206791 0
0.0276718 -0.000715738 0
0.0278433 -0.00183883 0
0.0269864 -0.0024133 0
0.0279056 -0.00173934 0
0.0245947 -0.00270218 0
0.027346 -0.00233475 0
0.0277405 -0.00205163 0
0.0276681 -0.000845098 0
0.027029 -0.00249008 0
0.0279278 -0.00145635 0
0.0279272 -0.00174987 0
0.0276623 -0.00101314 0
0.0270827 -0.0025962 0
0.0276225 -0.00234794 0
0.0252484 -0.00285111 0
0.0273252 -0.000708889 0
0.0278246 -0.00145411 0
0.0266436 -0.00279134 0
0.0276554 -0.00118104 0
0.0273255 -0.000800092 0
0.0266601 -0.00281546 0
0.0271321 -0.0027051 0
0.0266838 -0.00285137 0
0.0239218 -0.00288832 0
0.0273255 -0.000908803 0
0.0278892 -0.00187442 0
0.0278485 -0.00224006 0
0.0267171 -0.00290409 0
0.0276449 -0.00139743 0
0.0273247 -0.00104208 0
0.0271909 -0.00285361 0
0.0274667 -0.00275088 0
0.0267626 -0.00298054 0
0.0261261 -0.00307235 0
0.0276619 -0.00264114 0
0.0273226 -0.0012091 0
0.0276324 -0.00161349 0
0.0268224 -0.00309018 0
0.0272421 -0.00300685 0
0.027843 -0.00229095 0
0.0273182 -0.00142147 0
0.0251631 -0.00322863 0
0.0277657 -0.00213498 0
0.0276139 -0.00188861 0
0.0268971 -0.00324586 0
0.0151198 -0.00185748 0
0.019839 -0.002654 0
0.0277626 -0.00283653 0
0.0272971 -0.00321295 0
0.0256148 -0.00337052 0
0.0273097 -0.00169333 0
0.0278012 -0.00275658 0
0.0276778 -0.003025 0
0.0238363 -0.00325435 0
0.0275922 -0.00216297 0
0.026984 -0.00346489 0
0.0277761 -0.00279678 0
0.0264871 -0.00352714 0
0.0268822 -0.00152773 0
0.0264942 -0.00353958 0
0.0265012 -0.00355206 0
0.0273393 -0.00342659 0
0.0244315 -0.00343326 0
0.0268823 -0.00158069 0
0.0275404 -0.00332696 0
0.0265117 -0.00357052 0
0.0272944 -0.00204128 0
0.026522 -0.00358907 0
0.0268823 -0.00163354 0
0.0265368 -0.00361609 0
0.0268821 -0.00169514 0
0.0265514 -0.00364329 0
0.0275606 -0.00250689 0
0.0268817 -0.0017566 0
0.0265716 -0.00368235 0
0.026881 -0.00183037 0
0.0265913 -0.00372175 0
0.0250452 -0.00363508 0
0.0268801 -0.00190397 0
0.0259521 -0.00375204 0
0.0276574 -0.00342686 0
0.026618 -0.00377749 0
0.0276658 -0.00297311 0
0.0268786 -0.00199442 0
0.0270743 -0.00377036 0
0.0266436 -0.00383391 0
0.0273742 -0.00370949 0
0.0272674 -0.00248386 0
0.0268768 -0.00208466 0
0.0275241 -0.00284911 0
0.0276975 -0.00329841 0
0.0261633 -0.00386406 0
0 0 0
0.026677 -0.00391258 0
0.0268741 -0.00219745 0
0.0237219 -0.00362375 0
0.0267083 -0.00399251 0
0.0268708 -0.00230998 0
0.0268659 -0.00245199 0
0.0267473 -0.0041024 0
0.0273884 -0.00400365 0
0.0274722 -0.00327015 0
0.0268602 -0.00259361 0
0.0272216 -0.00304037 0
0.0267826 -0.00421454 0
0.0271492 -0.00419234 0
0.0275848 -0.00394154 0
0.0249032 -0.00404098 0
0.0268517 -0.00277288 0
0.0275878 -0.00389265 0
0.0275088 -0.00411118 0
0.0149987 -0.00208321 0
0.0268234 -0.00436655 0
0.0262389 -0.00434683 0
0.0268419 -0.00295153 0
0.0262518 -0.00437222 0
0.027413 -0.00368776 0
0.0262703 -0.00440993 0
0.0262587 -0.00252824 0
0.0273771 -0.00438623 0
0.0275032 -0.0039784 0
0.0262961 -0.00446515 0
0.0268576 -0.00452239 0
0.0268276 -0.00317695 0
0.0262589 -0.0026517 0
0.0257192 -0.00442587 0
0.0235783 -0.00399438 0
0.0263311 -0.00454491 0
0.0262583 -0.00279208 0
0.0241685 -0.004178 0
0.0271464 -0.003729 0
0.02525 -0.00444182 0
0.0268112 -0.00340135 0
0.0263766 -0.00465865 0
0.0268921 -0.00473057 0
0.0262566 -0.00295605 0
0.0274614 -0.0044787 0
0.0271753 -0.00476835 0
0.0273309 -0.00419069 0
0.0262529 -0.00315225 0
0.0264325 -0.00481898 0
0.0247218 -0.00447663 0
0.027334 -0.00478426 0
0.0267876 -0.00368217 0
0.0269154 -0.0049449 0
0.0195358 -0.00331097 0
0.0262462 -0.00339151 0
0.0267608 -0.00396125 0
0.0264957 -0.0050425 0
0.00803437 -0.00106861 0
0.0272382 -0.00468737 0
0.0262344 -0.00368689 0
0.0234083 -0.00436661 0
0.0269288 -0.00522675 0