# vtk DataFile Version 3.0
File generated from DClib
ASCII

DATASET UNSTRUCTURED_GRID
POINTS 1909 float
50 0 0 
48.75 0 0 
50 1.66667 0 
47.5 0 0 
50 3.33333 0 
46.25 0 0 
50 5 0 
45 0 0 
43.75 0 0 
50 6.66667 0 
43 2 0 
42.5 0 0 
50 8.33333 0 
43 4.66667 0 
41.25 0 0 
41.075 2 0 
50 10 0 
40 0 0 
43 7.33333 0 
39.15 2 0 
38.75 0 0 
43 10 0 
37.5 0 0 
37.225 2 0 
36.25 0 0 
36 4 0 
35.3 2 0 
36 5 0 
35 0 0 
35.325 4 0 
36 6 0 
36 7 0 
34.65 4 0 
36 8 0 
33.75 0 0 
33.975 4 0 
36 9 0 
33.375 2 0 
33.3 4 0 
36 10 0 
32.5 0 0 
32.625 4 0 
33 6 0 
31.95 4 0 
33 7.45455 0 
31.45 2 0 
31.25 0 0 
31.95 6 0 
33 8.79545 0 
31.275 4 0 
33 10 0 
30.6 4 0 
30 0 0 
30.9 6 0 
29.925 4 0 
29.525 2 0 
29.85 6 0 
29.25 4 0 
28.75 0 0 
30 8 0 
30 8.45455 0 
28.575 4 0 
29.625 8 0 
30 8.90909 0 
28.8 6 0 
30 9.25 0 
29.782 8.90909 0 
30 9.59091 0 
29.9487 9.59091 0 
29.25 8 0 
29.7462 9.25 0 
30 9.79545 0 
29.897 9.59091 0 
29.564 8.90909 0 
29.9547 9.79545 0 
29.3462 8.45455 0 
29.84 9.59091 0 
30 10 0 
29.8975 9.79545 0 
29.9882 10 0 
29.9902 10.0098 0 
29.7827 9.59091 0 
29.9765 10 0 
29.9804 10.0196 0 
29.9667 10.0098 0 
29.9591 10 0 
29.9686 10.0196 0 
29.9659 10.0341 0 
29.9569 10.0196 0 
29.9418 10 0 
29.9395 10.0196 0 
29.9515 10.0485 0 
29.932 10.0098 0 
29.9424 10.0341 0 
29.8241 9.79545 0 
29.7181 9.59091 0 
29.9166 10 0 
29.9397 10.0485 0 
29.9222 10.0196 0 
29.9279 10.0485 0 
29.9305 10.0695 0 
29.8914 10 0 
29.9077 10.0341 0 
27.9 4 0 
29.897 10.0196 0 
29.9106 10.0485 0 
29.8817 10.0098 0 
29.907 10.0695 0 
29.8933 10.0485 0 
29.9095 10.0905 0 
29.8719 10.0196 0 
27.6 2 0 
29.8556 10 0 
29.8978 10.0905 0 
29.6531 9.59091 0 
29.3437 8.90909 0 
27.5 0 0 
29.8681 10.0485 0 
29.886 10.0905 0 
29.8574 10.0341 0 
29.4839 9.25 0 
29.8723 10.0695 0 
29.7289 9.79545 0 
29.836 10.0196 0 
29.8687 10.0905 0 
29.8197 10 0 
29.8797 10.1203 0 
29.843 10.0485 0 
29.8513 10.0905 0 
29.81 10.0098 0 
29.8561 10.1203 0 
29.8002 10.0196 0 
29.8221 10.0695 0 
29.8072 10.0485 0 
29.8262 10.0905 0 
29.5782 9.59091 0 
29.8498 10.1502 0 
29.7695 10 0 
29.7858 10.0341 0 
29.838 10.1502 0 
29.8215 10.1203 0 
29.8011 10.0905 0 
29.8262 10.1502 0 
29.7714 10.0485 0 
28.875 8 0 
29.75 10.0196 0 
29.8089 10.1502 0 
29.7654 10.0905 0 
29.7193 10 0 
29.7916 10.1502 0 
29.7505 10.0695 0 
29.8079 10.1921 0 
29.7713 10.1203 0 
29.7096 10.0098 0 
29.6047 9.79545 0 
29.503 9.59091 0 
29.7213 10.0485 0 
29.7665 10.1502 0 
29.6999 10.0196 0 
29.7844 10.1921 0 
29.7296 10.0905 0 
29.6856 10.0341 0 
29.7414 10.1502 0 
29.7497 10.1921 0 
29.6503 10 0 
29.7661 10.2339 0 
29.6712 10.0485 0 
29.6999 10.1203 0 
29.7543 10.2339 0 
29.6796 10.0905 0 
29.7057 10.1502 0 
29.7425 10.2339 0 
29.1235 8.90909 0 
29.6309 10.0196 0 
29.6504 10.0695 0 
29.4146 9.59091 0 
29.7252 10.2339 0 
29.6996 10.1921 0 
29.6701 10.1502 0 
29.7079 10.2339 0 
29.6296 10.0905 0 
29.5813 10 0 
29.6023 10.0485 0 
29.5716 10.0098 0 
29.6828 10.2339 0 
29.7086 10.2914 0 
29.2101 9.25 0 
29.562 10.0196 0 
29.6201 10.1502 0 
29.6578 10.2339 0 
29.4428 9.79545 0 
29.5999 10.1203 0 
29.6849 10.2914 0 
29.6283 10.1921 0 
29.5477 10.0341 0 
29.3259 9.59091 0 
29.5608 10.0905 0 
29.5335 10.0485 0 
29.6221 10.2339 0 
29.6503 10.2914 0 
29.5702 10.1502 0 
29.4881 10 0 
29.5128 10.0695 0 
29.6511 10.3489 0 
29.5866 10.2339 0 
29.6392 10.3489 0 
29.4689 10.0196 0 
29.6002 10.2914 0 
29.6273 10.3489 0 
29.4921 10.0905 0 
29.61 10.3489 0 
29.5286 10.1921 0 
29.5016 10.1502 0 
29.5368 10.2339 0 
29.5926 10.3489 0 
29.4405 10.0485 0 
29.2199 9.59091 0 
29.4626 10.1203 0 
29.3949 10 0 
28.9 8.90909 0 
29.5676 10.3489 0 
29.5291 10.2914 0 
29.3853 10.0098 0 
28.6923 8.45455 0 
29.487 10.2339 0 
29.5426 10.3489 0 
29.3758 10.0196 0 
29.5734 10.4266 0 
29.4331 10.1502 0 
29.3993 10.0905 0 
28.5 8 0 
29.3617 10.0341 0 
29.5496 10.4266 0 
29.5071 10.3489 0 
29.2327 9.79545 0 
29.3475 10.0485 0 
29.1136 9.59091 0 
29.4187 10.2339 0 
29.5148 10.4266 0 
29.4716 10.3489 0 
29.3918 10.1921 0 
29.3271 10.0695 0 
29.4298 10.2914 0 
29.2714 10 0 
29.3406 10.1502 0 
28.9208 9.25 0 
29.3066 10.0905 0 
29.4648 10.4266 0 
29.422 10.3489 0 
29.4958 10.5042 0 
29.2524 10.0196 0 
27.75 6 0 
29.3504 10.2339 0 
29.4837 10.5042 0 
29.4718 10.5042 0 
29.2774 10.1203 0 
29.4543 10.5042 0 
29.3724 10.3489 0 
29.2244 10.0485 0 
29.4369 10.5042 0 
29.3938 10.4266 0 
28.9853 9.59091 0 
29.2481 10.1502 0 
28.6766 8.90909 0 
29.4119 10.5042 0 
29.2934 10.2914 0 
27.225 4 0 
29.148 10 0 
29.2582 10.2339 0 
29.1837 10.0905 0 
29.3869 10.5042 0 
29.1385 10.0098 0 
29.3044 10.3489 0 
29.1291 10.0196 0 
29.2072 10.1921 0 
29.3514 10.5042 0 
29.1152 10.0341 0 
29.3929 10.6071 0 
29.2949 10.4266 0 
29.1013 10.0485 0 
29.3686 10.6071 0 
29.316 10.5042 0 
29.2364 10.3489 0 
28.9623 9.79545 0 
29.1257 10.1502 0 
29.1662 10.2339 0 
29.0811 10.0695 0 
28.8566 9.59091 0 
29.3336 10.6071 0 
29.2666 10.5042 0 
29.0609 10.0905 0 
28.9875 10 0 
29.2835 10.6071 0 
29.1448 10.3489 0 
29.0321 10.1203 0 
29.2173 10.5042 0 
29.1098 10.2914 0 
28.125 8 0 
28.9688 10.0196 0 
29.1594 10.4266 0 
28.611 9.25 0 
29.29 10.71 0 
28.4486 8.90909 0 
29.0443 10.2339 0 
29.0033 10.1502 0 
29.2777 10.71 0 
28.9413 10.0485 0 
29.2128 10.6071 0 
29.2655 10.71 0 
29.1497 10.5042 0 
29.2478 10.71 0 
28.7003 9.59091 0 
29.0533 10.3489 0 
29.2303 10.71 0 
28.9629 10.1921 0 
28.9013 10.0905 0 
29.2051 10.71 0 
29.0822 10.5042 0 
29.1801 10.71 0 
28.827 10 0 
29.1144 10.6071 0 
28.8177 10.0098 0 
28.9225 10.2339 0 
28.8085 10.0196 0 
29.1447 10.71 0 
28.7949 10.0341 0 
28.8443 10.1502 0 
28.977 10.4266 0 
28.9322 10.3489 0 
29.1094 10.71 0 
28.7813 10.0485 0 
28.9912 10.5042 0 
29.1562 10.8438 0 
28.5436 9.59091 0 
28.7615 10.0695 0 
28.8669 10.2914 0 
29.1313 10.8438 0 
28.6184 9.79545 0 
29.0602 10.71 0 
28.2207 8.90909 0 
28.7418 10.0905 0 
28.0378 8.45455 0 
28.9798 10.6071 0 
29.0958 10.8438 0 
29.0112 10.71 0 
28.9005 10.5042 0 
28.7136 10.1203 0 
28.7644 10.2339 0 
28.8113 10.3489 0 
29.0454 10.8438 0 
28.6223 10 0 
28.6854 10.1502 0 
28.2746 9.25 0 
28.9441 10.71 0 
28.6042 10.0196 0 
27.75 8 0 
28.9747 10.8438 0 
28.6459 10.1921 0 
28.5773 10.0485 0 
29.0225 10.9775 0 
28.3532 9.59091 0 
28.7804 10.5042 0 
28.736 10.4266 0 
28.8772 10.71 0 
29.0097 10.9775 0 
28.9971 10.9775 0 
28.799 10.6071 0 
28.9791 10.9775 0 
28.5384 10.0905 0 
28.6064 10.2339 0 
28.6543 10.3489 0 
28.9611 10.9775 0 
28.8769 10.8438 0 
27.9867 8.90909 0 
26.25 0 0 
28.9358 10.9775 0 
28.7871 10.71 0 
28.9106 10.9775 0 
28.6607 10.5042 0 
28.4177 10 0 
26.55 4 0 
28.552 10.2914 0 
28.483 10.1502 0 
28.4087 10.0098 0 
28.8751 10.9775 0 
28.3998 10.0196 0 
28.3866 10.0341 0 
28.8399 10.9775 0 
28.6974 10.71 0 
28.3735 10.0485 0 
28.1625 9.59091 0 
28.7436 10.8438 0 
28.4976 10.3489 0 
28.3543 10.0695 0 
28.791 10.9775 0 
28.4052 10.2339 0 
28.3352 10.0905 0 
28.8519 11.1481 0 
28.1869 9.79545 0 
28.5607 10.6071 0 
28.5053 10.5042 0 
28.7423 10.9775 0 
28.8258 11.1481 0 
28.308 10.1203 0 
28.5787 10.71 0 
27.904 9.25 0 
28.7893 11.1481 0 
28.424 10.4266 0 
27.7528 8.90909 0 
28.2807 10.1502 0 
28.6758 10.9775 0 
27.375 8 0 
28.7383 11.1481 0 
28.1619 10 0 
28.5649 10.8438 0 
28.2425 10.1921 0 
28.6096 10.9775 0 
28.1444 10.0196 0 
28.298 10.3489 0 
28.4605 10.71 0 
26.7 6 0 
27.9315 9.59091 0 
28.3503 10.5042 0 
28.6676 11.1481 0 
28.1187 10.0485 0 
28.2042 10.2339 0 
28.5207 10.9775 0 
28.0813 10.0905 0 
28.6814 11.3186 0 
27.3818 8.45455 0 
28.6679 11.3186 0 
28.1516 10.2914 0 
28.5703 11.1481 0 
28.6544 11.3186 0 
28.6358 11.3186 0 
27.5109 8.90909 0 
28.3072 10.71 0 
28.6173 11.3186 0 
28.2524 10.6071 0 
28.4322 10.9775 0 
28.028 10.1502 0 
28.5915 11.3186 0 
28.0989 10.3489 0 
28.33 10.8438 0 
28.5658 11.3186 0 
28.153 10.5042 0 
27.9061 10 0 
27.8975 10.0098 0 
28.5303 11.3186 0 
28.4384 11.1481 0 
27.7002 9.59091 0 
27.889 10.0196 0 
27.8765 10.0341 0 
28.4949 11.3186 0 
28.3154 10.9775 0 
27.9532 10.2339 0 
27.8639 10.0485 0 
28.0276 10.4266 0 
28.1544 10.71 0 
27.8457 10.0695 0 
27.4909 9.25 0 
28.4463 11.3186 0 
27 8 0 
27.8275 10.0905 0 
28.3979 11.3186 0 
27.8015 10.1203 0 
27.6542 9.79545 0 
25.675 2 0 
28.1991 10.9775 0 
27.2691 8.90909 0 
27.9563 10.5042 0 
28.4682 11.5318 0 
28.2625 11.1481 0 
27.7755 10.1502 0 
28.3322 11.3186 0 
27.8502 10.3489 0 
28.4401 11.5318 0 
25.875 4 0 
27.7391 10.1921 0 
28.4019 11.5318 0 
28.0268 10.8438 0 
28.2668 11.3186 0 
27.9602 10.71 0 
28.3498 11.5318 0 
27.4223 9.59091 0 
27.7026 10.2339 0 
27.5927 10 0 
28.0486 10.9775 0 
27.8616 10.6071 0 
27.5762 10.0196 0 
28.1794 11.3186 0 
28.2786 11.5318 0 
27.5519 10.0485 0 
27.6524 10.2914 0 
28.0319 11.1481 0 
27.7108 10.5042 0 
27.5167 10.0905 0 
27.0169 8.90909 0 
28.0924 11.3186 0 
27.6021 10.3489 0 
27.8988 10.9775 0 
28.1818 11.5318 0 
27.7667 10.71 0 
26.625 8 0 
28.255 11.745 0 
27.4664 10.1502 0 
28.2402 11.745 0 
28.2256 11.745 0 
28.2059 11.745 0 
27.978 11.3186 0 
26.7234 8.45455 0 
27.0259 9.25 0 
27.5342 10.4266 0 
28.1863 11.745 0 
27.1442 9.59091 0 
28.0516 11.5318 0 
28.1598 11.745 0 
27.3959 10.2339 0 
28.1334 11.745 0 
27.2793 10 0 
27.2714 10.0098 0 
27.2635 10.0196 0 
27.7086 10.9775 0 
27.6431 10.8438 0 
28.0975 11.745 0 
27.8643 11.3186 0 
27.4661 10.5042 0 
27.2518 10.0341 0 
27.2401 10.0485 0 
28.0617 11.745 0 
26.7648 8.90909 0 
27.5255 10.71 0 
27.7353 11.1481 0 
27.2231 10.0695 0 
28.0133 11.745 0 
27.2061 10.0905 0 
27.8791 11.5318 0 
27.2986 10.3489 0 
27.1818 10.1203 0 
27.9651 11.745 0 
27.3758 10.6071 0 
27.0077 9.79545 0 
27.7174 11.3186 0 
27.1576 10.1502 0 
25 0 0 
27.5193 10.9775 0 
27.9003 11.745 0 
27.1236 10.1921 0 
26.25 8 0 
27.9939 12.0061 0 
25.65 6 0 
27.8359 11.745 0 
26.8136 9.59091 0 
27.0896 10.2339 0 
27.9626 12.0061 0 
27.2853 10.71 0 
25.2 4 0 
27.5713 11.3186 0 
27.9218 12.0061 0 
26.4998 8.90909 0 
27.167 10.5042 0 
27.6541 11.5318 0 
27.0427 10.2914 0 
27.7503 11.745 0 
26.9033 10 0 
27.8677 12.0061 0 
26.8882 10.0196 0 
26.8659 10.0485 0 
26.9958 10.3489 0 
27.2836 10.9775 0 
27.6652 11.745 0 
27.3609 11.1481 0 
27.7955 12.0061 0 
26.499 9.25 0 
[...]
POINT_DATA 1909
SCALARS phi float 1
LOOKUP_TABLE default
VECTORS Displacement float
0 0 0
0 0 0
0 -0.00146017 0
0 0 0
0 -0.0020078 0
0 0 0
0 -0.00170078 0
0 0 0
0 0 0
0 -0.000621604 0
0.00427008 -0.00128587 0
0 0 0
0 0.00114978 0
0.00828605 -0.000736809 0
0 0 0
0.00576411 -0.00126693 0
0 0.00344889 0
0 0 0
0.0111027 0.00190889 0
0.00739863 -0.00129107 0
0 0 0
0.0126315 0.00606806 0
0 0 0
0.0091372 -0.00138944 0
0 0 0
0.0173627 -0.000908965 0
0.0108811 -0.00156196 0
0.0205748 0.000112408 0
0 0 0
0.0186129 -0.00100287 0
0.0229528 0.00151897 0
0.0245538 0.00324412 0
0.0198333 -0.00111798 0
0.0255386 0.00508284 0
0 0 0
0.0210405 -0.0012987 0
0.0262467 0.00695084 0
0.0125192 -0.00179674 0
0.0222077 -0.00150432 0
0.0268055 0.00900962 0
0 0 0
0.023311 -0.00174955 0
0.0299825 0.000628033 0
0.0243538 -0.00201829 0
0.0330307 0.0034554 0
0.0139519 -0.00207964 0
0 0 0
0.0323739 -0.00038121 0
0.0343849 0.00692825 0
0.0253133 -0.00231416 0
0.0341831 0.0125139 0
0.0261922 -0.00263059 0
0 0 0
0.0343665 -0.00141208 0
0.0269808 -0.00296597 0
0.0150994 -0.00239972 0
0.0360342 -0.00251353 0
0.0276747 -0.00332046 0
0 0 0
0.0422361 -0.000172538 0
0.0434065 0.000663651 0
0.0282758 -0.00368694 0
0.0430528 -0.000908105 0
0.0445205 0.00165295 0
0.0373757 -0.00368103 0
0.0451992 0.00273202 0
0.0451588 0.00105588 0
0.0457411 0.0042517 0
0.0459044 0.00381869 0
0.0437672 -0.00165185 0
0.0459962 0.00179222 0
0.0461526 0.00612396 0
0.0460735 0.00346042 0
0.0457391 0.000454791 0
0.0463623 0.00566119 0
0.0449347 -0.000851634 0
0.046261 0.00313603 0
0.0464712 0.00912156 0
0.0466211 0.00512981 0
0.0465574 0.00904509 0
0.0558773 0.0143004 0
0.0464465 0.00284461 0
0.0466425 0.00893754 0
0.0624554 0.0173616 0
0.0550383 0.013528 0
0.0467713 0.00877276 0
0.0615355 0.0166975 0
0.0632497 0.0170018 0
0.0606243 0.0160252 0
0.0468994 0.00859888 0
0.0593477 0.0151855 0
0.0632131 0.0165822 0
0.0540056 0.0125059 0
0.0622925 0.0160791 0
0.0469395 0.00454705 0
0.0466589 0.00256687 0
0.0470808 0.00829364 0
0.063113 0.0162862 0
0.0582855 0.0144517 0
0.0630054 0.0160288 0
0.0633963 0.0163072 0
0.0472565 0.00800034 0
0.0606608 0.0150105 0
0.0287744 -0.00407402 0
0.0571029 0.0134739 0
0.0627039 0.0156943 0
0.0530651 0.0112086 0
0.0632361 0.0158214 0
0.0622261 0.0152901 0
0.06334 0.0159697 0
0.0561661 0.012643 0
0.0159001 -0.00275116 0
0.0474896 0.00753653 0
0.0632779 0.0157349 0
0.0468673 0.00230369 0
0.0462709 -0.000152674 0
0 0 0
0.0614266 0.0145914 0
0.0632084 0.0154973 0
0.058639 0.0134242 0
0.0467224 0.000913097 0
0.0628428 0.0150664 0
0.0473221 0.00390707 0
0.0551922 0.0115623 0
0.0630999 0.015129 0
0.0477071 0.00710098 0
0.0632955 0.0155316 0
0.0605201 0.0138664 0
0.0629932 0.014763 0
0.0522989 0.00964355 0
0.0631785 0.0150438 0
0.0544608 0.0106567 0
0.0617865 0.013855 0
0.0593002 0.0128018 0
0.0627684 0.0142487 0
0.0471079 0.00202123 0
0.0631713 0.0150477 0
0.0479818 0.00651477 0
0.0565104 0.0113833 0
0.0631154 0.0148031 0
0.0629982 0.0143307 0
0.0624648 0.0137194 0
0.06306 0.0145596 0
0.058192 0.0118395 0
0.0444453 -0.00240368 0
0.0537334 0.00954252 0
0.0629742 0.0142048 0
0.0618825 0.0129649 0
0.048229 0.0059676 0
0.0628855 0.0138564 0
0.059902 0.0121093 0
0.0629949 0.014374 0
0.06268 0.0133241 0
0.0517204 0.00789928 0
0.0477671 0.00318508 0
0.047343 0.00174516 0
0.0569184 0.0105721 0
0.0627583 0.0133573 0
0.0532218 0.00860971 0
0.0628919 0.0138943 0
0.0611259 0.0121838 0
0.0546459 0.00913272 0
0.0626348 0.0128805 0
0.0627406 0.0132119 0
0.048523 0.00529978 0
0.0627833 0.0136969 0
0.0558972 0.00949974 0
0.0618882 0.0119363 0
0.0627346 0.0134613 0
0.0600029 0.0110977 0
0.0624297 0.0122328 0
0.0626863 0.0132303 0
0.0467488 -0.000757226 0
0.052718 0.00750701 0
0.0575262 0.0098779 0
0.0476122 0.00143138 0
0.0626164 0.0128985 0
0.0625249 0.0122898 0
0.0621893 0.0116146 0
0.0625484 0.012577 0
0.0588748 0.0100831 0
0.0487798 0.00467634 0
0.0548428 0.00819918 0
0.0512952 0.00605756 0
0.0624505 0.0121291 0
0.0625041 0.0128016 0
0.0473981 5.15828e-05 0
0.0523677 0.00656233 0
0.0617089 0.0107992 0
0.0623535 0.0117008 0
0.0482822 0.00236973 0
0.0601846 0.010101 0
0.0624165 0.0123617 0
0.0622148 0.0111038 0
0.0532682 0.00688371 0
0.0478751 0.00112209 0
0.0575143 0.00877574 0
0.0540923 0.00713279 0
0.0622176 0.0111182 0
0.0622921 0.0117499 0
0.0610524 0.00998213 0
0.0490732 0.00396327 0
0.0552827 0.00744459 0
0.0622147 0.0119462 0
0.0620863 0.010573 0
0.0621747 0.0117372 0
0.0519945 0.0054776 0
0.0621214 0.0109291 0
0.0621356 0.0115333 0
0.0563798 0.0076621 0
0.0620791 0.0112419 0
0.0615528 0.00961022 0
0.0600115 0.00890752 0
0.0618912 0.00985515 0
0.062024 0.0109601 0
0.0533784 0.00591568 0
0.0481715 0.000756979 0
0.0577601 0.00784199 0
0.0493255 0.00328996 0
0.0471888 -0.00135993 0
0.0619466 0.0105677 0
0.0618944 0.00987896 0
0.0509692 0.00417472 0
0.0461494 -0.00235639 0
0.0616798 0.00919256 0
0.0618724 0.0101931 0
0.0517296 0.00452155 0
0.0618634 0.0108771 0
0.0588956 0.00788954 0
0.0552129 0.00632336 0
0.0450332 -0.00316803 0
0.052344 0.00472922 0
0.0617924 0.0104967 0
0.0617705 0.00968813 0
0.0488766 0.00143873 0
0.0528868 0.00488593 0
0.04846 0.000396776 0
0.0612527 0.00834981 0
0.0616934 0.00997078 0
0.0616731 0.00921276 0
0.0599727 0.00775684 0
0.0536438 0.0050748 0
0.0615963 0.0086022 0
0.0496228 0.0025446 0
0.0575249 0.00659872 0
0.0480414 -0.000819092 0
0.0543764 0.00522584 0
0.0615593 0.00926822 0
0.0615408 0.00858909 0
0.0615177 0.00988138 0
0.0514412 0.00344921 0
0.0383791 -0.00489866 0
0.0606454 0.00751984 0
0.0614864 0.00970455 0
0.0614557 0.0095322 0
0.0554024 0.00539193 0
0.0614121 0.00928675 0
0.0614135 0.00800908 0
0.0524249 0.00374541 0
0.0613699 0.00904939 0
0.061384 0.00836453 0
0.048782 -3.50876e-05 0
0.0563647 0.00548885 0
0.0475917 -0.00195481 0
0.0613105 0.00871905 0
0.0610039 0.00706135 0
0.0291784 -0.00446627 0
0.0498898 0.00183597 0
0.0596477 0.006459 0
0.053603 0.00397835 0
0.0612534 0.00840229 0
0.0507704 0.00228567 0
0.0612329 0.00726008 0
0.0512608 0.00249252 0
0.0575546 0.00551904 0
0.0611748 0.00797204 0
0.0517122 0.0026336 0
0.0611356 0.00869223 0
0.0611611 0.00724297 0
0.0520958 0.00273081 0
0.061079 0.00837336 0
0.0610998 0.00756282 0
0.061038 0.00657037 0
0.0495462 0.000342456 0
0.0551984 0.00415722 0
0.0585359 0.00544157 0
0.0525996 0.00283405 0
0.049091 -0.000461526 0
0.061 0.00793383 0
0.0609989 0.00702178 0
0.0530726 0.00291062 0
0.0502274 0.00103626 0
0.0608931 0.00734187 0
0.0606295 0.00570004 0
0.0537259 0.00299059 0
0.0609028 0.00651141 0
0.0594601 0.00518432 0
0.0455593 -0.00393235 0
0.0511155 0.00142583 0
0.0608774 0.00590059 0
0.0486509 -0.0017293 0
0.0607716 0.00759773 0
0.0479643 -0.00255627 0
0.0571849 0.0041636 0
0.0543656 0.00304368 0
0.0607473 0.00745014 0
0.0518122 0.00161035 0
0.0607526 0.00656778 0
0.0607235 0.00730573 0
0.0607739 0.0058524 0
0.0606895 0.00710087 0
0.0494305 -0.000976107 0
0.0600188 0.00484219 0
0.0606563 0.00690127 0
0.055237 0.00307513 0
0.0526081 0.00172922 0
0.0606089 0.00662294 0
0.0606489 0.00523384 0
0.0605626 0.00635341 0
0.0505485 0.000283774 0
0.0605728 0.0055872 0
0.050846 0.000402744 0
0.0560621 0.00305425 0
0.0511109 0.000493981 0
0.0604978 0.00598493 0
0.0513971 0.000562796 0
0.0536301 0.00178738 0
0.0603017 0.00429063 0
0.0590129 0.00376943 0
0.0604348 0.00563078 0
0.0516551 0.000610492 0
0.0604739 0.0044455 0
0.0603695 0.00630922 0
0.0497458 -0.00148504 0
0.0520005 0.000657949 0
0.057068 0.00294169 0
0.0603245 0.00603667 0
0.0502852 -0.000945102 0
0.0603488 0.00515749 0
0.0483028 -0.00315191 0
0.0523166 0.000684116 0
0.0470813 -0.00387471 0
0.0603479 0.00438139 0
0.0602616 0.00566161 0
0.0602661 0.00470625 0
0.0602816 0.00371774 0
0.0527403 0.000698726 0
0.0549848 0.00174218 0
0.0579097 0.002744 0
0.0601751 0.00515374 0
0.0509856 -0.000565685 0
0.0531467 0.000695407 0
0.0492219 -0.00270064 0
0.0601582 0.00411919 0
0.0512195 -0.000533489 0
0.0459975 -0.00470228 0
0.0600583 0.00448236 0
0.0537019 0.000668644 0
0.0516085 -0.000485714 0
0.0599949 0.00511015 0
0.0500822 -0.00209751 0
0.0598585 0.00281398 0
0.0587158 0.00236821 0
0.0600568 0.00356551 0
0.0599747 0.00498106 0
0.0599548 0.00485448 0
0.0600671 0.00295668 0
0.0599267 0.00467697 0
0.0521224 -0.000465746 0
0.0542409 0.000618803 0
0.0566355 0.00147925 0
0.0598989 0.00450355 0
0.0599044 0.00362058 0
0.0486151 -0.00375862 0
0 0 0
0.0598598 0.00426275 0
0.0599255 0.00286342 0
0.0598212 0.00402874 0
0.0592093 0.00192399 0
0.051377 -0.00136987 0
0.0294758 -0.00488403 0
0.0549556 0.000515125 0
0.0527781 -0.000503565 0
0.0514326 -0.0013888 0
0.0597678 0.00370893 0
0.0514894 -0.00140738 0
0.051601 -0.00142074 0
0.0597153 0.00340007 0
0.0597997 0.00220198 0
0.0517215 -0.00143192 0
0.0503824 -0.00270284 0
0.059707 0.00254899 0
0.0556322 0.000371978 0
0.0519082 -0.0014456 0
0.0596437 0.00298619 0
0.0536388 -0.000627487 0
0.0521015 -0.00145999 0
0.059568 0.0036983 0
0.0510288 -0.00243769 0
0.0594566 0.00126948 0
0.0581925 0.000832074 0
0.0595735 0.00258895 0
0.0595316 0.00345495 0
0.0523612 -0.00149508 0
0.0596197 0.00137097 0
0.0497458 -0.00375393 0
0.0594808 0.00312508 0
0.0564517 0.000119764 0
0.048892 -0.00436125 0
0.0526134 -0.00153917 0
0.0594788 0.00206779 0
0.0463688 -0.00546823 0
0.0594104 0.00268126 0
0.0517959 -0.00231663 0
0.0594627 0.00124806 0
0.0529551 -0.00161573 0
0.0593858 0.00156907 0
0.0518899 -0.00236224 0
0.0547466 -0.000899281 0
0.0594058 0.000598754 0
0.0390388 -0.00615684 0
0.0507021 -0.00342212 0
0.0571525 -0.000195482 0
0.0593138 0.00209329 0
0.0520429 -0.00242529 0
0.0532939 -0.00170185 0
0.0592641 0.000930382 0
0.0522826 -0.00251593 0
0.0591475 0.00236853 0
0.0477779 -0.00538075 0
0.0591318 0.00225114 0
0.053743 -0.00184052 0
0.0591829 0.0013302 0
0.0591163 0.00213579 0
0.0590947 0.00197772 0
0.0491449 -0.00498022 0
0.0589402 -0.000336581 0
0.0590734 0.00182263 0
0.0578313 -0.000690902 0
0.0591474 0.000324905 0
0.0526409 -0.00264966 0
0.0590433 0.00161024 0
0.0541818 -0.00199493 0
0.0591592 -0.000271408 0
0.0590134 0.00140235 0
0.0560632 -0.0014192 0
0.0521212 -0.00323393 0
0.0521677 -0.00325743 0
0.0589714 0.00112003 0
0.0590075 0.000364513 0
0.050979 -0.004133 0
0.052214 -0.00328116 0
0.0522815 -0.00331608 0
0.0589292 0.000844663 0
0.059001 -0.000426667 0
0.0531336 -0.00285967 0
0.0523485 -0.00335136 0
0.0547476 -0.00222869 0
0.058258 -0.00124105 0
0.0524454 -0.00340299 0
0.0502098 -0.00491083 0
0.0588706 0.000476195 0
0.0466608 -0.0062358 0
0.0525427 -0.00345521 0
0.0588114 0.00011883 0
0.0526832 -0.00353139 0
0.0516839 -0.00417617 0
0.0163012 -0.00313044 0
0.0588642 -0.0011292 0
0.0493609 -0.00559622 0
0.0552827 -0.00248723 0
0.0586575 0.000807518 0
0.0587782 -0.00081355 0
0.0528232 -0.00360966 0
0.0587311 -0.000349635 0
0.0538099 -0.00317724 0
0.058627 0.000578179 0
0.0296761 -0.00529874 0
0.0530176 -0.00372347 0
0.0585856 0.000274134 0
0.0584757 -0.00199603 0
0.0586505 -0.000798684 0
0.0573141 -0.00230845 0
0.0585289 -0.000129787 0
0.0512636 -0.00497223 0
0.0532086 -0.00384121 0
0.052436 -0.00428125 0
0.0586648 -0.0019764 0
0.0559219 -0.00286527 0
0.0525171 -0.00432861 0
0.0585435 -0.00137103 0
0.0584514 -0.000660724 0
0.0526376 -0.00439971 0
0.0534657 -0.00400942 0
0.0585071 -0.00218162 0
0.054688 -0.00365938 0
0.0528118 -0.00450536 0
0.0495528 -0.00623475 0
0.0584392 -0.00190921 0
0.0537165 -0.00418445 0
0.0584276 -0.00274121 0
0.058347 -0.00134369 0
0.0564763 -0.00327751 0
0.0468917 -0.00700327 0
0.0582026 -0.000679053 0
0.0530559 -0.00466147 0
0.058188 -0.000794264 0
0.0581734 -0.000907577 0
0.0581537 -0.00105782 0
0.0583088 -0.00256925 0
0.0482528 -0.00688163 0
0.0505989 -0.0061935 0
0.0540662 -0.00441951 0
0.058134 -0.00120516 0
0.0514992 -0.00580314 0
0.0582117 -0.00219222 0
0.0581072 -0.00140165 0
0.0533893 -0.00489099 0
0.0580804 -0.00159322 0
0.0526785 -0.00530799 0
0.052716 -0.00533239 0
0.0527535 -0.00535692 0
0.0579812 -0.00362236 0
0.057026 -0.00385233 0
0.0580439 -0.00184813 0
0.0581959 -0.00317085 0
0.054412 -0.00466074 0
0.0528079 -0.00539332 0
0.0528622 -0.00543005 0
0.0580082 -0.0020943 0
0.0497073 -0.00687094 0
0.0557238 -0.00437625 0
0.0582131 -0.00365713 0
0.0529404 -0.00548387 0
0.0579601 -0.00241788 0
0.0530179 -0.00553844 0
0.0580485 -0.00319562 0
0.0538275 -0.00522687 0
0.0531277 -0.00561741 0
0.0579146 -0.00272581 0
0.0548563 -0.00499041 0
0.0522108 -0.00618933 0
0.0580687 -0.0038821 0
0.0532362 -0.00569774 0
0 0 0
0.0574036 -0.00445195 0
0.0578554 -0.00312153 0
0.053386 -0.00581271 0
0.0470515 -0.00777133 0
0.0576346 -0.00241949 0
0.0393538 -0.00745204 0
0.0578022 -0.00349141 0
0.0517183 -0.00677711 0
0.0535332 -0.00593031 0
0.0576115 -0.00264126 0
0.055277 -0.0053351 0
0.0297665 -0.00574699 0
0.0579588 -0.00452953 0
0.0575821 -0.00292036 0
0.0498346 -0.00753687 0
0.0543847 -0.00571131 0
0.0578672 -0.00431883 0
0.0537304 -0.0060965 0
0.0577369 -0.00395362 0
0.0528864 -0.00651671 0
0.0575444 -0.0032742 0
0.0529517 -0.00656673 0
0.0530474 -0.0066415 0
0.0539211 -0.00626747 0
0.056713 -0.00541932 0
0.0576805 -0.00438025 0
0.0576266 -0.00523475 0
0.0574971 -0.0037189 0
0.0508849 -0.00762778 0
0.0531845 -0.00675194 0
0.0557601 -0.00581316 0
0.0577982 -0.00529704 0
0.0541696 -0.00650477 0
0.0574399 -0.00426596 0
0.0576209 -0.00490043 0
0.053376 -0.00691342 0
0.0550632 -0.0064043 0
0.049925 -0.0082009 0
0.0485147 -0.00838551 0
0.0518689 -0.00774639 0
0.0576788 -0.00556453 0
0.0544076 -0.0067501 0
0.0471529 -0.00854158 0
0.0570804 -0.00402904 0
0.0536357 -0.0071475 0
0.0575616 -0.00539015 0
0.0570711 -0.00413351 0
0.0573748 -0.00492154 0
0.0561726 -0.00632212 0
0.0570622 -0.00423501 0
0.0576076 -0.00601868 0
0.0570509 -0.00436363 0
0.0570404 -0.00448801 0
0.0570274 -0.00464682 0
0.0530137 -0.00771129 0
0.054704 -0.00708702 0
0.0530432 -0.00773684 0
0.0530725 -0.00776251 0
0.0570154 -0.00479975 0
0.0531154 -0.00780057 0
0.0539759 -0.00748419 0
0.0574963 -0.00598704 0
0.053158 -0.00783887 0
0.0570018 -0.00499526 0
0.0532193 -0.00789486 0
0.0573075 -0.00569576 0
0.0569892 -0.005183 0
0.05328 -0.00795136 0
0.0533656 -0.00803279 0
0.04998 -0.00890278 0
0.0549806 -0.00743702 0
0.0569775 -0.00542192 0
0.0565648 -0.00701122 0
0.0572621 -0.00688071 0
0.0534501 -0.00811529 0
0.0574235 -0.00656483 0
0.0569655 -0.00565202 0
0.0557913 -0.00738931 0
0.0525055 -0.00853774 0
0.0535664 -0.00823258 0
0.0574206 -0.00699607 0
0.0544021 -0.00796511 0
0.0569571 -0.00594314 0
0.0519669 -0.00887288 0
0.0536804 -0.00835195 0
0.0471896 -0.00931241 0
0.0572269 -0.00662751 0
0.0297566 -0.00618013 0
0.0569473 -0.00622557 0
0.0553068 -0.00791176 0
0.0510219 -0.00924133 0
0.0538328 -0.00851959 0
0.0573166 -0.00727705 0
0.0565228 -0.00570012 0
0.0568255 -0.00773658 0
0.0569348 -0.00658657 0
0.0565159 -0.00588628 0
0.0539807 -0.00869112 0
0.0499973 -0.00960367 0
0.0565089 -0.00610814 0
0.0530701 -0.00910266 0
0.0531215 -0.00915527 0
0.05692 -0.0069413 0
0.0555913 -0.00840767 0
0.0549006 -0.00864779 0
0.0565014 -0.00638027 0
0.0531964 -0.00923369 0
0.0541723 -0.00892899 0
0.0571967 -0.00797059 0
0.0533034 -0.00934907 0
0.048571 -0.00989843 0
0.0571098 -0.00776852 0
0.0564923 -0.00672032 0
0.0568951 -0.00739432 0
0.0543543 -0.00917409 0
0.0534523 -0.00951694 0
0.0393249 -0.00878319 0
0.0563838 -0.00876759 0
0.0519746 -0.00999538 0
0.0564804 -0.00715061 0
0.056926 -0.00868057 0
0.0471694 -0.010086 0
0.0568658 -0.0078417 0
0.055886 -0.00906848 0
0.053653 -0.00975878 0
0.0545802 -0.00951003 0
0.0499702 -0.0103498 0
0.0570226 -0.0088165 0
0.0564636 -0.00770002 0
0 0 0
0.0568216 -0.00840857 0
0.0554214 -0.00961135 0
0.0558927 -0.00721926 0
0.0539136 -0.0101043 0
0.0547873 -0.00985873 0
0.055894 -0.00730702 0
0.0558951 -0.00739391 0
0.0162543 -0.00352875 0
0.0530219 -0.0104836 0
0.0558967 -0.00750002 0
0.0569204 -0.00915709 0
0.0530447 -0.0105108 0
0.0530674 -0.010538 0
0.055898 -0.00760533 0
0.0561032 -0.00975818 0
0.0531006 -0.0105783 0
0.0564353 -0.00840422 0
0.05677 -0.00896681 0
0.0558993 -0.00773735 0
0.0531336 -0.0106188 0
0.0568273 -0.00963878 0
0.0531811 -0.010678 0
0.0559002 -0.00786857 0
0.053228 -0.0107376 0
0.0550267 -0.0103307 0
0.0559005 -0.00803607 0
0.0542346 -0.0105949 0
0.0532939 -0.0108233 0
0.0509451 -0.0110594 0
0.0296315 -0.00665619 0
0.0559003 -0.00820283 0
0.0499015 -0.0110957 0
0.0533587 -0.0109099 0
0.0470892 -0.01086 0
0.055899 -0.00841776 0
0.0534476 -0.0110328 0
0.056693 -0.00966165 0
0.0518846 -0.0112812 0
0.0524292 -0.0112428 0
0.0558967 -0.00863199 0
0.0535342 -0.0111576 0
0.0563848 -0.00929998 0
0.0552304 -0.0108235 0
0.055892 -0.00890866 0
0.0562585 -0.0106575 0
0.0536496 -0.0113321 0
0.0565629 -0.0106186 0
0.0484263 -0.0114249 0
0.0546006 -0.0112872 0
0.0558487 -0.010956 0
0.0558858 -0.00918431 0
0.0537604 -0.0115103 0
0.0566029 -0.0103439 0
0.0566128 -0.010813 0
0.0558749 -0.0095396 0
0.0539025 -0.0117563 0
0.055436 -0.0114807 0
0.0497792 -0.0118932 0
0.0551173 -0.00890379 0
0.0562926 -0.0104202 0
0.0528406 -0.0120647 0
0.0558612 -0.0098925 0
0.0551186 -0.00909907 0
0.0528804 -0.0121207 0
0.0540359 -0.0120087 0
0.0529382 -0.0122039 0
0.0469538 -0.0116365 0
0.0551192 -0.00933083 0
0.0564716 -0.0111783 0
0.056288 -0.0115991 0
0.0530203 -0.012326 0
0.055839 -0.010344 0
0.0551185 -0.00961389 0
0.0541985 -0.0123529 0
0.054965 -0.012257 0
0.0531334 -0.0125029 0
0.0516836 -0.012559 0
0.0555778 -0.0121696 0
0.0551155 -0.0099671 0
0.0558119 -0.0107913 0
0.0532843 -0.0127564 0
0.0543445 -0.0127081 0
0.0563195 -0.012 0
0.0551081 -0.0104138 0
0.0496105 -0.01269 0
0.0561294 -0.0117965 0
0.0557697 -0.011356 0
0.0534769 -0.0131157 0
0.0294045 -0.00709832 0
0.038953 -0.0101453 0
0.0559674 -0.0127944 0
0.0545084 -0.0131857 0
0.0505798 -0.0130944 0
0.0550923 -0.0109818 0
0.0561374 -0.0127836 0
0.0556601 -0.0130669 0
0.0467625 -0.0124121 0
0.0557191 -0.011915 0
0.0537085 -0.0136207 0
0.0561089 -0.0129945 0
0.0525242 -0.0136231 0
0.0541863 -0.0106468 0
0.0525416 -0.0136518 0
0.0525589 -0.0136807 0
0.0546421 -0.0136807 0
0.0480841 -0.0129664 0
0.0541871 -0.0107577 0
0.0552282 -0.0135979 0
0.0525844 -0.0137233 0
0.0550614 -0.011703 0
0.0526097 -0.0137662 0
0.0541877 -0.0108683 0
0.052646 -0.0138286 0
0.0541881 -0.0109972 0
0.0526818 -0.0138914 0
0.0556433 -0.0126104 0
0.0541882 -0.0111256 0
0.0527319 -0.0139815 0
0.0541877 -0.0112796 0
0.0527809 -0.0140723 0
0.0493763 -0.0135429 0
0.0541868 -0.011433 0
0.0513384 -0.0139917 0
0.0556407 -0.0139961 0
0.0528477 -0.0142008 0
0.0558549 -0.0134633 0
0.054185 -0.0116213 0
0.0539625 -0.014324 0
0.0529124 -0.0143307 0
0.054767 -0.0143347 0
0.0550039 -0.0126118 0
0.0541824 -0.0118089 0
0.0555545 -0.0132989 0
0.0558742 -0.0139871 0
0.0518159 -0.0142816 0
0 0 0
0.0529977 -0.0145117 0
0.0541781 -0.012043 0
0.046518 -0.0131887 0
0.0530788 -0.0146954 0
0.0541725 -0.012276 0
0.0541638 -0.0125696 0
0.0531817 -0.0149477 0
0.0548409 -0.0150116 0
0.0554269 -0.0141422 0
0.0541532 -0.0128617 0
0.0549027 -0.0137447 0
0.0532767 -0.0152048 0
0.0541979 -0.0152929 0
0.0554981 -0.0151636 0
0.049094 -0.0143919 0
0.0541368 -0.0132306 0
0.0555724 -0.0151757 0
0.0552392 -0.0154007 0
0.0290542 -0.00758917 0
0.0533902 -0.0155529 0
0.0520204 -0.0153503 0
0.0541173 -0.0135973 0
0.0520515 -0.0154088 0
0.0552811 -0.0149781 0
0.0520964 -0.0154956 0
0.0529413 -0.0127394 0
0.0548628 -0.0158861 0
0.0554286 -0.0154666 0
0.0521597 -0.0156226 0
0.0534896 -0.0159091 0
0.0540881 -0.0140588 0
0.0529426 -0.0129953 0
0.0508719 -0.0154043 0
0.0462223 -0.0139607 0
0.0522463 -0.0158058 0
0.0529424 -0.013286 0
0.0475482 -0.0145193 0
0.0547328 -0.0151377 0
0.0498523 -0.0153368 0
0.054054 -0.0145173 0
0.0523607 -0.0160666 0
0.0535971 -0.0163839 0
0.0529399 -0.0136249 0
0.0552463 -0.0163583 0
0.0543394 -0.0166071 0
0.0550825 -0.0159869 0
0.0529335 -0.0140298 0
0.0525045 -0.0164334 0
0.0487328 -0.0152984 0
0.0548087 -0.0167868 0
0.0540041 -0.0150897 0
0.0536801 -0.0168712 0
0.038241 -0.0115186 0
0.0529208 -0.0145224 0
0.0539469 -0.0156577 0
0.0526737 -0.0169433 0
0.0157288 -0.00392295 0
0.0548623 -0.016985 0
0.0528975 -0.0151293 0
0.0458756 -0.0147305 0
0.0537499 -0.0175096 0
0.0544622 -0.0168227 0
0.0538654 -0.0163582 0
0.0548352 -0.0177308 0
0.0513741 -0.0170307 0
0.0513879 -0.0170604 0
0.0514015 -0.0170901 0