# vtk DataFile Version 3.0
File generated from DClib
ASCII

DATASET UNSTRUCTURED_GRID
POINTS 1909 float
50 0 0 
48.75 0 0 
50 1.66667 0 
47.5 0 0 
50 3.33333 0 
46.25 0 0 
50 5 0 
45 0 0 
43.75 0 0 
50 6.66667 0 
43 2 0 
42.5 0 0 
50 8.33333 0 
43 4.66667 0 
41.25 0 0 
41.075 2 0 
50 10 0 
40 0 0 
43 7.33333 0 
39.15 2 0 
38.75 0 0 
43 10 0 
37.5 0 0 
37.225 2 0 
36.25 0 0 
36 4 0 
35.3 2 0 
36 5 0 
35 0 0 
35.325 4 0 
36 6 0 
36 7 0 
34.65 4 0 
36 8 0 
33.75 0 0 
33.975 4 0 
36 9 0 
33.375 2 0 
33.3 4 0 
36 10 0 
32.5 0 0 
32.625 4 0 
33 6 0 
31.95 4 0 
33 7.45455 0 
31.45 2 0 
31.25 0 0 
31.95 6 0 
33 8.79545 0 
31.275 4 0 
33 10 0 
30.6 4 0 
30 0 0 
30.9 6 0 
29.925 4 0 
29.525 2 0 
29.85 6 0 
29.25 4 0 
28.75 0 0 
30 8 0 
30 8.45455 0 
28.575 4 0 
29.625 8 0 
30 8.90909 0 
28.8 6 0 
30 9.25 0 
29.782 8.90909 0 
30 9.59091 0 
29.9487 9.59091 0 
29.25 8 0 
29.7462 9.25 0 
30 9.79545 0 
29.897 9.59091 0 
29.564 8.90909 0 
29.9547 9.79545 0 
29.3462 8.45455 0 
29.84 9.59091 0 
30 10 0 
29.8975 9.79545 0 
29.9882 10 0 
29.9902 10.0098 0 
29.7827 9.59091 0 
29.9765 10 0 
29.9804 10.0196 0 
29.9667 10.0098 0 
29.9591 10 0 
29.9686 10.0196 0 
29.9659 10.0341 0 
29.9569 10.0196 0 
29.9418 10 0 
29.9395 10.0196 0 
29.9515 10.0485 0 
29.932 10.0098 0 
29.9424 10.0341 0 
29.8241 9.79545 0 
29.7181 9.59091 0 
29.9166 10 0 
29.9397 10.0485 0 
29.9222 10.0196 0 
29.9279 10.0485 0 
29.9305 10.0695 0 
29.8914 10 0 
29.9077 10.0341 0 
27.9 4 0 
29.897 10.0196 0 
29.9106 10.0485 0 
29.8817 10.0098 0 
29.907 10.0695 0 
29.8933 10.0485 0 
29.9095 10.0905 0 
29.8719 10.0196 0 
27.6 2 0 
29.8556 10 0 
29.8978 10.0905 0 
29.6531 9.59091 0 
29.3437 8.90909 0 
27.5 0 0 
29.8681 10.0485 0 
29.886 10.0905 0 
29.8574 10.0341 0 
29.4839 9.25 0 
29.8723 10.0695 0 
29.7289 9.79545 0 
29.836 10.0196 0 
29.8687 10.0905 0 
29.8197 10 0 
29.8797 10.1203 0 
29.843 10.0485 0 
29.8513 10.0905 0 
29.81 10.0098 0 
29.8561 10.1203 0 
29.8002 10.0196 0 
29.8221 10.0695 0 
29.8072 10.0485 0 
29.8262 10.0905 0 
29.5782 9.59091 0 
29.8498 10.1502 0 
29.7695 10 0 
29.7858 10.0341 0 
29.838 10.1502 0 
29.8215 10.1203 0 
29.8011 10.0905 0 
29.8262 10.1502 0 
29.7714 10.0485 0 
28.875 8 0 
29.75 10.0196 0 
29.8089 10.1502 0 
29.7654 10.0905 0 
29.7193 10 0 
29.7916 10.1502 0 
29.7505 10.0695 0 
29.8079 10.1921 0 
29.7713 10.1203 0 
29.7096 10.0098 0 
29.6047 9.79545 0 
29.503 9.59091 0 
29.7213 10.0485 0 
29.7665 10.1502 0 
29.6999 10.0196 0 
29.7844 10.1921 0 
29.7296 10.0905 0 
29.6856 10.0341 0 
29.7414 10.1502 0 
29.7497 10.1921 0 
29.6503 10 0 
29.7661 10.2339 0 
29.6712 10.0485 0 
29.6999 10.1203 0 
29.7543 10.2339 0 
29.6796 10.0905 0 
29.7057 10.1502 0 
29.7425 10.2339 0 
29.1235 8.90909 0 
29.6309 10.0196 0 
29.6504 10.0695 0 
29.4146 9.59091 0 
29.7252 10.2339 0 
29.6996 10.1921 0 
29.6701 10.1502 0 
29.7079 10.2339 0 
29.6296 10.0905 0 
29.5813 10 0 
29.6023 10.0485 0 
29.5716 10.0098 0 
29.6828 10.2339 0 
29.7086 10.2914 0 
29.2101 9.25 0 
29.562 10.0196 0 
29.6201 10.1502 0 
29.6578 10.2339 0 
29.4428 9.79545 0 
29.5999 10.1203 0 
29.6849 10.2914 0 
29.6283 10.1921 0 
29.5477 10.0341 0 
29.3259 9.59091 0 
29.5608 10.0905 0 
29.5335 10.0485 0 
29.6221 10.2339 0 
29.6503 10.2914 0 
29.5702 10.1502 0 
29.4881 10 0 
29.5128 10.0695 0 
29.6511 10.3489 0 
29.5866 10.2339 0 
29.6392 10.3489 0 
29.4689 10.0196 0 
29.6002 10.2914 0 
29.6273 10.3489 0 
29.4921 10.0905 0 
29.61 10.3489 0 
29.5286 10.1921 0 
29.5016 10.1502 0 
29.5368 10.2339 0 
29.5926 10.3489 0 
29.4405 10.0485 0 
29.2199 9.59091 0 
29.4626 10.1203 0 
29.3949 10 0 
28.9 8.90909 0 
29.5676 10.3489 0 
29.5291 10.2914 0 
29.3853 10.0098 0 
28.6923 8.45455 0 
29.487 10.2339 0 
29.5426 10.3489 0 
29.3758 10.0196 0 
29.5734 10.4266 0 
29.4331 10.1502 0 
29.3993 10.0905 0 
28.5 8 0 
29.3617 10.0341 0 
29.5496 10.4266 0 
29.5071 10.3489 0 
29.2327 9.79545 0 
29.3475 10.0485 0 
29.1136 9.59091 0 
29.4187 10.2339 0 
29.5148 10.4266 0 
29.4716 10.3489 0 
29.3918 10.1921 0 
29.3271 10.0695 0 
29.4298 10.2914 0 
29.2714 10 0 
29.3406 10.1502 0 
28.9208 9.25 0 
29.3066 10.0905 0 
29.4648 10.4266 0 
29.422 10.3489 0 
29.4958 10.5042 0 
29.2524 10.0196 0 
27.75 6 0 
29.3504 10.2339 0 
29.4837 10.5042 0 
29.4718 10.5042 0 
29.2774 10.1203 0 
29.4543 10.5042 0 
29.3724 10.3489 0 
29.2244 10.0485 0 
29.4369 10.5042 0 
29.3938 10.4266 0 
28.9853 9.59091 0 
29.2481 10.1502 0 
28.6766 8.90909 0 
29.4119 10.5042 0 
29.2934 10.2914 0 
27.225 4 0 
29.148 10 0 
29.2582 10.2339 0 
29.1837 10.0905 0 
29.3869 10.5042 0 
29.1385 10.0098 0 
29.3044 10.3489 0 
29.1291 10.0196 0 
29.2072 10.1921 0 
29.3514 10.5042 0 
29.1152 10.0341 0 
29.3929 10.6071 0 
29.2949 10.4266 0 
29.1013 10.0485 0 
29.3686 10.6071 0 
29.316 10.5042 0 
29.2364 10.3489 0 
28.9623 9.79545 0 
29.1257 10.1502 0 
29.1662 10.2339 0 
29.0811 10.0695 0 
28.8566 9.59091 0 
29.3336 10.6071 0 
29.2666 10.5042 0 
29.0609 10.0905 0 
28.9875 10 0 
29.2835 10.6071 0 
29.1448 10.3489 0 
29.0321 10.1203 0 
29.2173 10.5042 0 
29.1098 10.2914 0 
28.125 8 0 
28.9688 10.0196 0 
29.1594 10.4266 0 
28.611 9.25 0 
29.29 10.71 0 
28.4486 8.90909 0 
29.0443 10.2339 0 
29.0033 10.1502 0 
29.2777 10.71 0 
28.9413 10.0485 0 
29.2128 10.6071 0 
29.2655 10.71 0 
29.1497 10.5042 0 
29.2478 10.71 0 
28.7003 9.59091 0 
29.0533 10.3489 0 
29.2303 10.71 0 
28.9629 10.1921 0 
28.9013 10.0905 0 
29.2051 10.71 0 
29.0822 10.5042 0 
29.1801 10.71 0 
28.827 10 0 
29.1144 10.6071 0 
28.8177 10.0098 0 
28.9225 10.2339 0 
28.8085 10.0196 0 
29.1447 10.71 0 
28.7949 10.0341 0 
28.8443 10.1502 0 
28.977 10.4266 0 
28.9322 10.3489 0 
29.1094 10.71 0 
28.7813 10.0485 0 
28.9912 10.5042 0 
29.1562 10.8438 0 
28.5436 9.59091 0 
28.7615 10.0695 0 
28.8669 10.2914 0 
29.1313 10.8438 0 
28.6184 9.79545 0 
29.0602 10.71 0 
28.2207 8.90909 0 
28.7418 10.0905 0 
28.0378 8.45455 0 
28.9798 10.6071 0 
29.0958 10.8438 0 
29.0112 10.71 0 
28.9005 10.5042 0 
28.7136 10.1203 0 
28.7644 10.2339 0 
28.8113 10.3489 0 
29.0454 10.8438 0 
28.6223 10 0 
28.6854 10.1502 0 
28.2746 9.25 0 
28.9441 10.71 0 
28.6042 10.0196 0 
27.75 8 0 
28.9747 10.8438 0 
28.6459 10.1921 0 
28.5773 10.0485 0 
29.0225 10.9775 0 
28.3532 9.59091 0 
28.7804 10.5042 0 
28.736 10.4266 0 
28.8772 10.71 0 
29.0097 10.9775 0 
28.9971 10.9775 0 
28.799 10.6071 0 
28.9791 10.9775 0 
28.5384 10.0905 0 
28.6064 10.2339 0 
28.6543 10.3489 0 
28.9611 10.9775 0 
28.8769 10.8438 0 
27.9867 8.90909 0 
26.25 0 0 
28.9358 10.9775 0 
28.7871 10.71 0 
28.9106 10.9775 0 
28.6607 10.5042 0 
28.4177 10 0 
26.55 4 0 
28.552 10.2914 0 
28.483 10.1502 0 
28.4087 10.0098 0 
28.8751 10.9775 0 
28.3998 10.0196 0 
28.3866 10.0341 0 
28.8399 10.9775 0 
28.6974 10.71 0 
28.3735 10.0485 0 
28.1625 9.59091 0 
28.7436 10.8438 0 
28.4976 10.3489 0 
28.3543 10.0695 0 
28.791 10.9775 0 
28.4052 10.2339 0 
28.3352 10.0905 0 
28.8519 11.1481 0 
28.1869 9.79545 0 
28.5607 10.6071 0 
28.5053 10.5042 0 
28.7423 10.9775 0 
28.8258 11.1481 0 
28.308 10.1203 0 
28.5787 10.71 0 
27.904 9.25 0 
28.7893 11.1481 0 
28.424 10.4266 0 
27.7528 8.90909 0 
28.2807 10.1502 0 
28.6758 10.9775 0 
27.375 8 0 
28.7383 11.1481 0 
28.1619 10 0 
28.5649 10.8438 0 
28.2425 10.1921 0 
28.6096 10.9775 0 
28.1444 10.0196 0 
28.298 10.3489 0 
28.4605 10.71 0 
26.7 6 0 
27.9315 9.59091 0 
28.3503 10.5042 0 
28.6676 11.1481 0 
28.1187 10.0485 0 
28.2042 10.2339 0 
28.5207 10.9775 0 
28.0813 10.0905 0 
28.6814 11.3186 0 
27.3818 8.45455 0 
28.6679 11.3186 0 
28.1516 10.2914 0 
28.5703 11.1481 0 
28.6544 11.3186 0 
28.6358 11.3186 0 
27.5109 8.90909 0 
28.3072 10.71 0 
28.6173 11.3186 0 
28.2524 10.6071 0 
28.4322 10.9775 0 
28.028 10.1502 0 
28.5915 11.3186 0 
28.0989 10.3489 0 
28.33 10.8438 0 
28.5658 11.3186 0 
28.153 10.5042 0 
27.9061 10 0 
27.8975 10.0098 0 
28.5303 11.3186 0 
28.4384 11.1481 0 
27.7002 9.59091 0 
27.889 10.0196 0 
27.8765 10.0341 0 
28.4949 11.3186 0 
28.3154 10.9775 0 
27.9532 10.2339 0 
27.8639 10.0485 0 
28.0276 10.4266 0 
28.1544 10.71 0 
27.8457 10.0695 0 
27.4909 9.25 0 
28.4463 11.3186 0 
27 8 0 
27.8275 10.0905 0 
28.3979 11.3186 0 
27.8015 10.1203 0 
27.6542 9.79545 0 
25.675 2 0 
28.1991 10.9775 0 
27.2691 8.90909 0 
27.9563 10.5042 0 
28.4682 11.5318 0 
28.2625 11.1481 0 
27.7755 10.1502 0 
28.3322 11.3186 0 
27.8502 10.3489 0 
28.4401 11.5318 0 
25.875 4 0 
27.7391 10.1921 0 
28.4019 11.5318 0 
28.0268 10.8438 0 
28.2668 11.3186 0 
27.9602 10.71 0 
28.3498 11.5318 0 
27.4223 9.59091 0 
27.7026 10.2339 0 
27.5927 10 0 
28.0486 10.9775 0 
27.8616 10.6071 0 
27.5762 10.0196 0 
28.1794 11.3186 0 
28.2786 11.5318 0 
27.5519 10.0485 0 
27.6524 10.2914 0 
28.0319 11.1481 0 
27.7108 10.5042 0 
27.5167 10.0905 0 
27.0169 8.90909 0 
28.0924 11.3186 0 
27.6021 10.3489 0 
27.8988 10.9775 0 
28.1818 11.5318 0 
27.7667 10.71 0 
26.625 8 0 
28.255 11.745 0 
27.4664 10.1502 0 
28.2402 11.745 0 
28.2256 11.745 0 
28.2059 11.745 0 
27.978 11.3186 0 
26.7234 8.45455 0 
27.0259 9.25 0 
27.5342 10.4266 0 
28.1863 11.745 0 
27.1442 9.59091 0 
28.0516 11.5318 0 
28.1598 11.745 0 
27.3959 10.2339 0 
28.1334 11.745 0 
27.2793 10 0 
27.2714 10.0098 0 
27.2635 10.0196 0 
27.7086 10.9775 0 
27.6431 10.8438 0 
28.0975 11.745 0 
27.8643 11.3186 0 
27.4661 10.5042 0 
27.2518 10.0341 0 
27.2401 10.0485 0 
28.0617 11.745 0 
26.7648 8.90909 0 
27.5255 10.71 0 
27.7353 11.1481 0 
27.2231 10.0695 0 
28.0133 11.745 0 
27.2061 10.0905 0 
27.8791 11.5318 0 
27.2986 10.3489 0 
27.1818 10.1203 0 
27.9651 11.745 0 
27.3758 10.6071 0 
27.0077 9.79545 0 
27.7174 11.3186 0 
27.1576 10.1502 0 
25 0 0 
27.5193 10.9775 0 
27.9003 11.745 0 
27.1236 10.1921 0 
26.25 8 0 
27.9939 12.0061 0 
25.65 6 0 
27.8359 11.745 0 
26.8136 9.59091 0 
27.0896 10.2339 0 
27.9626 12.0061 0 
27.2853 10.71 0 
25.2 4 0 
27.5713 11.3186 0 
27.9218 12.0061 0 
26.4998 8.90909 0 
27.167 10.5042 0 
27.6541 11.5318 0 
27.0427 10.2914 0 
27.7503 11.745 0 
26.9033 10 0 
27.8677 12.0061 0 
26.8882 10.0196 0 
26.8659 10.0485 0 
26.9958 10.3489 0 
27.2836 10.9775 0 
27.6652 11.745 0 
27.3609 11.1481 0 
27.7955 12.0061 0 
26.499 9.25 0 
[...]
POINT_DATA 1909
SCALARS phi float 1
LOOKUP_TABLE default
VECTORS Displacement float
0 0 0
0 0 0
0 -0.00599772 0
0 0 0
0 -0.00829066 0
0 0 0
0 -0.00718303 0
0 0 0
0 0 0
0 -0.0030193 0
0.0170152 -0.00519621 0
0 0 0
0 0.00394079 0
0.0329945 -0.00309155 0
0 0 0
0.0230981 -0.00508706 0
0 0.0128619 0
0 0 0
0.0437833 0.00731358 0
0.0297868 -0.00515955 0
0 0 0
0.0495318 0.0238545 0
0 0 0
0.0369423 -0.00553979 0
0 0 0
0.0699953 -0.00340465 0
0.0441697 -0.00623294 0
0.082449 0.000857351 0
0 0 0
0.0750952 -0.00375973 0
0.0913598 0.00658918 0
0.0971029 0.0134369 0
0.080109 -0.00420484 0
0.10056 0.0206543 0
0 0 0
0.0850985 -0.00491782 0
0.103294 0.0282449 0
0.0510089 -0.00719572 0
0.0899506 -0.00573579 0
0.10588 0.0372547 0
0 0 0
0.0945726 -0.00672574 0
0.120823 0.0035077 0
0.098965 -0.00781668 0
0.132339 0.0158221 0
0.0570292 -0.00837265 0
0 0 0
0.131025 -0.000493071 0
0.137306 0.0326156 0
0.103035 -0.00903232 0
0.13833 0.0566556 0
0.106782 -0.0103384 0
0 0 0
0.139652 -0.00467932 0
0.110163 -0.0117359 0
0.0618725 -0.0097183 0
0.146941 -0.00923468 0
0.11315 -0.0132175 0
0 0 0
0.171968 0.00176043 0
0.176946 0.0056743 0
0.115752 -0.0147631 0
0.175555 -0.00133032 0
0.181827 0.0106457 0
0.152857 -0.0141381 0
0.185519 0.0177094 0
0.184436 0.00757201 0
0.189341 0.0277675 0
0.190142 0.0254038 0
0.17872 -0.0045021 0
0.188979 0.0123186 0
0.190274 0.0347033 0
0.190916 0.0234264 0
0.186782 0.00482924 0
0.191047 0.0323162 0
0.183597 -0.00086626 0
0.191677 0.0214343 0
0.190578 0.0425972 0
0.192068 0.0295427 0
0.190931 0.0427375 0
0.299842 0.0820556 0
0.192383 0.0196736 0
0.191333 0.0426978 0
0.385043 0.111633 0
0.297805 0.0809047 0
0.191957 0.0425874 0
0.382997 0.110465 0
0.389371 0.11119 0
0.380635 0.109049 0
0.192636 0.042333 0
0.376586 0.107054 0
0.389501 0.11002 0
0.294105 0.0785897 0
0.387499 0.10883 0
0.193451 0.0265316 0
0.1931 0.0178895 0
0.193641 0.0416334 0
0.389316 0.108984 0
0.372401 0.104869 0
0.389163 0.108042 0
0.389836 0.108688 0
0.194679 0.0408833 0
0.38317 0.105628 0
0.117915 -0.0163967 0
0.366367 0.101617 0
0.38869 0.106864 0
0.288855 0.0744407 0
0.389599 0.106964 0
0.388054 0.10559 0
0.389169 0.107262 0
0.360451 0.0983355 0
0.0652507 -0.0112045 0
0.196097 0.0393626 0
0.389107 0.106432 0
0.193756 0.0162496 0
0.189069 0.00228139 0
0 0 0
0.386653 0.103631 0
0.389024 0.105589 0
0.375726 0.100549 0
0.19207 0.0081622 0
0.389106 0.104408 0
0.195262 0.0233185 0
0.352564 0.0934739 0
0.388875 0.10428 0
0.197486 0.0379051 0
0.388301 0.10533 0
0.384677 0.101459 0
0.388712 0.102919 0
0.281998 0.0679317 0
0.388156 0.103539 0
0.34486 0.0887601 0
0.38757 0.100253 0
0.381289 0.0980249 0
0.388409 0.100868 0
0.194456 0.0145267 0
0.387198 0.103213 0
0.199247 0.0355877 0
0.364359 0.0924826 0
0.387116 0.102277 0
0.387905 0.100747 0
0.388058 0.0987692 0
0.387032 0.101321 0
0.377219 0.0944573 0
0.18174 -0.00769107 0
0.334739 0.0821839 0
0.386896 0.0998905 0
0.387274 0.0957718 0
0.200865 0.0334216 0
0.386753 0.0984429 0
0.38344 0.0938439 0
0.385625 0.100101 0
0.387472 0.0965582 0
0.272982 0.0589498 0
0.197492 0.0198746 0
0.195104 0.0128926 0
0.370971 0.089258 0
0.386536 0.0963268 0
0.324944 0.0759612 0
0.385464 0.0981264 0
0.386163 0.0927422 0
0.347858 0.0810374 0
0.386312 0.0942186 0
0.385208 0.0951971 0
0.202798 0.0305503 0
0.384023 0.0968729 0
0.364105 0.0840884 0
0.386523 0.0905975 0
0.38393 0.0958628 0
0.383942 0.0885291 0
0.385983 0.0912388 0
0.383836 0.0948576 0
0.191178 -0.000216627 0
0.312227 0.0678494 0
0.374748 0.0846308 0
0.195852 0.011138 0
0.383698 0.0933848 0
0.384813 0.0910004 0
0.385657 0.0883348 0
0.383559 0.0919262 0
0.380967 0.08431 0
0.204442 0.0278591 0
0.35416 0.0770788 0
0.26115 0.0478129 0
0.38336 0.0898396 0
0.381884 0.0923957 0
0.194885 0.00426317 0
0.300162 0.0603038 0
0.385058 0.0844041 0
0.383162 0.0877923 0
0.200056 0.0161462 0
0.383803 0.082578 0
0.381708 0.0904005 0
0.384243 0.085262 0
0.325009 0.06631 0
0.196578 0.00945322 0
0.37578 0.0786465 0
0.34373 0.0702495 0
0.382881 0.0849487 0
0.381447 0.0875306 0
0.384299 0.0806278 0
0.206315 0.0247152 0
0.359132 0.0722322 0
0.379803 0.0879876 0
0.382601 0.0821947 0
0.379712 0.0870028 0
0.285051 0.0511456 0
0.381067 0.083524 0
0.379622 0.0860309 0
0.369573 0.0730143 0
0.37949 0.0846237 0
0.383391 0.0777915 0
0.382614 0.075697 0
0.38222 0.0784768 0
0.379358 0.0832423 0
0.32919 0.0615559 0
0.197458 0.00759219 0
0.376669 0.0722223 0
0.2078 0.0217375 0
0.193199 -0.00270663 0
0.379171 0.0812832 0
0.380537 0.0781283 0
0.246547 0.0352339 0
0.188996 -0.00724469 0
0.381857 0.0749382 0
0.378986 0.0793739 0
0.271516 0.0429179 0
0.377184 0.0822409 0
0.380212 0.0709009 0
0.359726 0.0657308 0
0.184388 -0.0109864 0
0.295293 0.0489562 0
0.377015 0.0803654 0
0.378729 0.0767335 0
0.202803 0.0119856 0
0.314438 0.0531944 0
0.198363 0.0058117 0
0.381305 0.0702996 0
0.376769 0.0777059 0
0.378478 0.0741844 0
0.381287 0.0684552 0
0.333862 0.0564957 0
0.379835 0.0711602 0
0.209429 0.0184288 0
0.375523 0.0647831 0
0.197524 0.000351896 0
0.348596 0.0584698 0
0.376417 0.0740289 0
0.378133 0.0707574 0
0.374606 0.0767346 0
0.256093 0.0336792 0
0.157327 -0.0193192 0
0.380673 0.0659339 0
0.374528 0.0758306 0
0.374451 0.074941 0
0.361281 0.0590315 0
0.374338 0.0736614 0
0.377797 0.0674773 0
0.295253 0.0431788 0
0.374227 0.0724073 0
0.375926 0.0690995 0
0.199457 0.00377307 0
0.36948 0.0587193 0
0.195073 -0.00520362 0
0.374067 0.0706366 0
0.378941 0.0624949 0
0.119678 -0.0180643 0
0.210677 0.0152715 0
0.379211 0.0603863 0
0.332119 0.0494644 0
0.373908 0.0689109 0
0.231479 0.0223861 0
0.377351 0.0631739 0
0.244076 0.0260374 0
0.374815 0.0570713 0
0.373682 0.0665254 0
0.261779 0.0306187 0
0.371476 0.0698647 0
0.375264 0.0627013 0
0.277381 0.0340784 0
0.37133 0.0681666 0
0.373458 0.0642153 0
0.376926 0.0590982 0
0.205524 0.00710471 0
0.359082 0.0511584 0
0.377002 0.0550777 0
0.297427 0.0379046 0
0.200579 0.00180615 0
0.371117 0.0657779 0
0.373145 0.0610959 0
0.314425 0.0405916 0
0.21199 0.0116735 0
0.370813 0.0624816 0
0.376347 0.0538705 0
0.332601 0.0425589 0
0.372836 0.0580977 0
0.377027 0.0520271 0
0.186801 -0.0142686 0
0.232527 0.0180338 0
0.374407 0.0546772 0
0.199993 -0.00375253 0
0.368384 0.0633606 0
0.196795 -0.00778125 0
0.372328 0.0485241 0
0.346471 0.0435099 0
0.368321 0.0625475 0
0.257518 0.0239406 0
0.370386 0.0580465 0
0.368258 0.061747 0
0.372415 0.0541559 0
0.368167 0.0606044 0
0.201919 -0.000497426 0
0.375719 0.0489962 0
0.368076 0.0594826 0
0.358451 0.043151 0
0.291465 0.0302439 0
0.367945 0.0579045 0
0.372002 0.0504022 0
0.367813 0.0563618 0
0.213021 0.00824435 0
0.369799 0.0522582 0
0.220351 0.010625 0
0.365934 0.042126 0
0.225405 0.0119911 0
0.367624 0.0542312 0
0.233866 0.0141095 0
0.327126 0.0344651 0
0.373382 0.0450006 0
0.374274 0.0429726 0
0.367435 0.052162 0
0.242671 0.0160556 0
0.37147 0.0456107 0
0.364616 0.055437 0
0.203243 -0.00274819 0
0.256796 0.0189218 0
0.370519 0.0398482 0
0.364498 0.0539029 0
0.208039 0.00119665 0
0.367168 0.0493683 0
0.198384 -0.0103531 0
0.270535 0.0212363 0
0.193295 -0.0137537 0
0.369015 0.0449728 0
0.364328 0.0517675 0
0.366901 0.04668 0
0.370975 0.0411186 0
0.289202 0.0238397 0
0.354147 0.0345743 0
0.372028 0.0373573 0
0.364086 0.0488374 0
0.214031 0.00417256 0
0.305817 0.0255727 0
0.202314 -0.00814265 0
0.366536 0.0431467 0
0.220092 0.00578461 0
0.188832 -0.0176118 0
0.363746 0.0449096 0
0.324441 0.0266401 0
0.230082 0.00784594 0
0.360982 0.047974 0
0.204778 -0.00542041 0
0.370358 0.0355612 0
0.371441 0.0338619 0
0.366179 0.0397901 0
0.36093 0.0472373 0
0.360877 0.0465125 0
0.368041 0.0362048 0
0.360803 0.0454935 0
0.249337 0.011238 0
0.338989 0.0268899 0
0.36701 0.0307415 0
0.360728 0.0444941 0
0.363281 0.039805 0
0.199828 -0.0130064 0
0 0 0
0.360621 0.0431031 0
0.365714 0.0355201 0
0.360515 0.0417457 0
0.369713 0.0304925 0
0.214863 0.000290529 0
0.120976 -0.019839 0
0.351808 0.0258962 0
0.279834 0.0154382 0
0.216292 0.00062204 0
0.360365 0.0398857 0
0.217775 0.000933584 0
0.220168 0.00140441 0
0.360216 0.0380845 0
0.365278 0.0315287 0
0.223178 0.00200011 0
0.206226 -0.00805829 0
0.362671 0.033426 0
0.359803 0.0244356 0
0.22872 0.00306139 0
0.360013 0.0356688 0
0.316119 0.0183227 0
0.235311 0.00422141 0
0.356603 0.039126 0
0.210325 -0.00588992 0
0.367013 0.0262128 0
0.368248 0.0244971 0
0.359814 0.0333541 0
0.356517 0.037749 0
0.246361 0.00597363 0
0.364768 0.0266397 0
0.204532 -0.012861 0
0.356395 0.0358789 0
0.364557 0.0218073 0
0.201124 -0.0156563 0
0.258183 0.00747731 0
0.359553 0.0303317 0
0.19059 -0.0209444 0
0.356226 0.0333598 0
0.215551 -0.00436549 0
0.36193 0.025818 0
0.275364 0.00919846 0
0.359306 0.0274741 0
0.21692 -0.0042409 0
0.345877 0.0174918 0
0.364349 0.0221513 0
0.160296 -0.0247214 0
0.207833 -0.0112046 0
0.365971 0.0190802 0
0.355996 0.0300326 0
0.219556 -0.00399928 0
0.291692 0.0101994 0
0.358995 0.0238528 0
0.2257 -0.00330826 0
0.352304 0.0309393 0
0.196537 -0.0203322 0
0.352269 0.0302921 0
0.311219 0.0105617 0
0.355691 0.0257623 0
0.352234 0.0296574 0
0.352187 0.028786 0
0.202271 -0.0183992 0
0.363821 0.0167926 0
0.352141 0.0279342 0
0.365141 0.0154177 0
0.358715 0.0204745 0
0.239447 -0.00181864 0
0.352079 0.0267694 0
0.327243 0.0101943 0
0.361122 0.0171579 0
0.352017 0.0256367 0
0.360448 0.0128455 0
0.216148 -0.00881102 0
0.21651 -0.00884526 0
0.351934 0.0241054 0
0.35531 0.0204674 0
0.209274 -0.0143263 0
0.21687 -0.00888336 0
0.217483 -0.00891778 0
0.351854 0.0226264 0
0.358374 0.0163054 0
0.265166 0.000382653 0
0.218155 -0.00894395 0
0.342094 0.00859934 0
0.363199 0.0118824 0
0.21948 -0.00889775 0
0.206624 -0.0179855 0
0.351749 0.0206597 0
0.191979 -0.0242953 0
0.221132 -0.00879246 0
0.35165 0.0187752 0
0.22437 -0.00848707 0
0.212592 -0.0140839 0
0.0669189 -0.0128096 0
0.358068 0.0124089 0
0.203265 -0.0211296 0
0.351698 0.00669052 0
0.347544 0.0217792 0
0.354863 0.0141205 0
0.228644 -0.00803422 0
0.351522 0.0163188 0
0.301171 0.00186131 0
0.347494 0.0205885 0
0.121857 -0.0216086 0
0.236349 -0.00726164 0
0.347426 0.0190236 0
0.36026 0.00741297 0
0.351405 0.0139797 0
0.361714 0.00596175 0
0.347334 0.0169628 0
0.210751 -0.0180445 0
0.24563 -0.00650611 0
0.216677 -0.0139887 0
0.357726 0.00763423 0
0.357482 0.00358013 0
0.217201 -0.0141335 0
0.351254 0.0109881 0
0.347214 0.0142726 0
0.218025 -0.014348 0
0.260205 -0.0056671 0
0.354345 0.00662003 0
0.334795 1.38017e-05 0
0.219531 -0.0146219 0
0.20414 -0.0239551 0
0.351108 0.00812791 0
0.275359 -0.00541232 0
0.357335 0.00306641 0
0.34706 0.010816 0
0.359233 0.000418487 0
0.193089 -0.0276605 0
0.342634 0.0134099 0
0.222961 -0.0148645 0
0.342623 0.0128567 0
0.342613 0.0123133 0
0.342602 0.0115907 0
0.350925 0.00450552 0
0.198731 -0.0269508 0
0.208451 -0.0236544 0
0.294919 -0.00588208 0
0.342591 0.0108821 0
0.211984 -0.021736 0
0.346867 0.00644952 0
0.342577 0.00993226 0
0.2316 -0.0148995 0
0.342563 0.00900306 0
0.217172 -0.0189669 0
0.217366 -0.0190577 0
0.217572 -0.0191457 0
0.3567 -0.0025343 0
0.358202 -0.0037583 0
0.342543 0.00775949 0
0.350717 0.0009924 0
0.312132 -0.00713158 0
0.217865 -0.0192812 0
0.218165 -0.0194167 0
0.342523 0.00654538 0
0.204851 -0.026768 0
0.352486 -0.00597766 0
0.353645 -0.00237536 0
0.218629 -0.0196049 0
0.342494 0.00493334 0
0.219085 -0.0198002 0
0.346624 0.000975247 0
0.250861 -0.0147774 0
0.219848 -0.0200488 0
0.342463 0.00335912 0
0.329238 -0.00972421 0
0.214929 -0.0233278 0
0.350422 -0.00343527 0
0.220691 -0.0202916 0
0 0 0
0.355925 -0.00788454 0
0.342422 0.00128707 0
0.222405 -0.0205259 0
0.193859 -0.031025 0
0.337256 0.00425022 0
0.161744 -0.0303023 0
0.342373 -0.000743746 0
0.213082 -0.0260872 0
0.224668 -0.0206974 0
0.337242 0.00317881 0
0.340968 -0.0125033 0
0.122255 -0.0235175 0
0.350083 -0.0077393 0
0.337221 0.00180799 0
0.205442 -0.0297049 0
0.283419 -0.0153904 0
0.346268 -0.00588216 0
0.229208 -0.0207929 0
0.342293 -0.00339316 0
0.21799 -0.0245521 0
0.337192 2.83938e-05 0
0.218233 -0.0247688 0
0.218661 -0.0250717 0
0.235371 -0.0208197 0
0.354021 -0.0143786 0
0.342199 -0.00599809 0
0.352494 -0.0130901 0
0.337153 -0.00229565 0
0.20982 -0.029997 0
0.219334 -0.0255074 0
0.34843 -0.0165543 0
0.349583 -0.0130514 0
0.245971 -0.0209791 0
0.337096 -0.00533352 0
0.342052 -0.00935786 0
0.220364 -0.0261428 0
0.319777 -0.0189435 0
0.205858 -0.0326325 0
0.199961 -0.0335664 0
0.21385 -0.0303983 0
0.345674 -0.0143484 0
0.258454 -0.0215462 0
0.194362 -0.0343965 0
0.331751 -0.00444197 0
0.222204 -0.0270444 0
0.341881 -0.0126515 0
0.331753 -0.0049788 0
0.337004 -0.00928799 0
0.350887 -0.0204527 0
0.331755 -0.00550969 0
0.349012 -0.0181906 0
0.331759 -0.00618753 0
0.331761 -0.00685814 0
0.331763 -0.00773246 0
0.218557 -0.0300026 0
0.276088 -0.0230111 0
0.218696 -0.0301113 0
0.218833 -0.0302208 0
0.331764 -0.00859796 0
0.219022 -0.0303849 0
0.226725 -0.0282642 0
0.341625 -0.0168194 0
0.21921 -0.0305501 0
0.331761 -0.00973885 0
0.219474 -0.0307927 0
0.336841 -0.0143853 0
0.331756 -0.0108685 0
0.219738 -0.0310376 0
0.220105 -0.0313902 0
0.206127 -0.035718 0
0.293174 -0.0253907 0
0.331741 -0.0123604 0
0.349747 -0.0254115 0
0.348117 -0.0243972 0
0.220472 -0.0317467 0
0.341328 -0.0208829 0
0.331723 -0.0138371 0
0.341763 -0.0268868 0
0.216541 -0.0338266 0
0.220991 -0.0322467 0
0.344656 -0.0245147 0
0.238658 -0.0300252 0
0.33169 -0.0157797 0
0.214381 -0.0353827 0
0.2215 -0.0327564 0
0.19456 -0.0377603 0
0.336549 -0.0208338 0
0.122219 -0.0253636 0
0.331649 -0.017699 0
0.311815 -0.0293352 0
0.2105 -0.0371136 0
0.222345 -0.033423 0
0.340891 -0.0259069 0
0.325348 -0.0144058 0
0.347042 -0.0303337 0
0.331584 -0.0201997 0
0.325352 -0.0155288 0
0.223331 -0.0340811 0
0.206215 -0.038793 0
0.325355 -0.016919 0
0.21905 -0.0361827 0
0.219258 -0.0364041 0
0.331505 -0.0226613 0
0.325792 -0.0334513 0
0.263871 -0.0331027 0
0.325353 -0.0186821 0
0.219572 -0.0367333 0
0.225521 -0.0348388 0
0.340386 -0.030785 0
0.220027 -0.0372167 0
0.200273 -0.0401887 0
0.336035 -0.0287979 0
0.32534 -0.0209501 0
0.331382 -0.0258201 0
0.228559 -0.0355792 0
0.220672 -0.0379174 0
0.161674 -0.036034 0
0.344369 -0.0373349 0
0.214493 -0.0403172 0
0.325309 -0.0238823 0
0.34301 -0.0364047 0
0.194507 -0.0411303 0
0.331236 -0.0289178 0
0.335832 -0.0388744 0
0.221547 -0.0389274 0
0.234668 -0.0365886 0
0.206122 -0.0420554 0
0.339665 -0.0366702 0
0.32524 -0.0276595 0
0 0 0
0.331013 -0.0328211 0
0.299584 -0.0389818 0
0.318877 -0.0241977 0
0.222781 -0.0403603 0
0.242981 -0.0378656 0
0.318881 -0.0247967 0
0.318884 -0.0253915 0
0.0666649 -0.0144875 0
0.218949 -0.0423297 0
0.318887 -0.0261176 0
0.33516 -0.0383852 0
0.21906 -0.0424481 0
0.21917 -0.0425669 0
0.318889 -0.0268384 0
0.339844 -0.0437286 0
0.219325 -0.042743 0
0.325103 -0.0324739 0
0.330753 -0.0366339 0
0.31889 -0.0277412 0
0.219478 -0.04292 0
0.338851 -0.042345 0
0.219693 -0.0431787 0
0.318889 -0.028637 0
0.219905 -0.0434394 0
0.256239 -0.0401983 0
0.318885 -0.0297791 0
0.22501 -0.0424012 0
0.220199 -0.0438155 0
0.210247 -0.0450631 0
0.121679 -0.0273867 0
0.318879 -0.0309111 0
0.205841 -0.0453026 0
0.220489 -0.0441955 0
0.19418 -0.0444911 0
0.318866 -0.0323682 0
0.220882 -0.0447359 0
0.330371 -0.0413428 0
0.214188 -0.0459335 0
0.216475 -0.0457175 0
0.318849 -0.03381 0
0.221266 -0.0452835 0
0.324847 -0.0385164 0
0.271086 -0.0435832 0
0.318819 -0.0356691 0
0.339129 -0.049608 0
0.221777 -0.0460461 0
0.337623 -0.0490302 0
0.199694 -0.0468325 0
0.230542 -0.0455655 0
0.326636 -0.0493195 0
0.318783 -0.0375053 0
0.222265 -0.0468213 0
0.329929 -0.0459201 0
0.333702 -0.0495869 0
0.318723 -0.0398606 0
0.222916 -0.0478645 0
0.289096 -0.0489589 0
0.20534 -0.0487613 0
0.31123 -0.0355309 0
0.324392 -0.0459536 0
0.218306 -0.0492065 0
0.318651 -0.0421819 0
0.311236 -0.0368183 0
0.218472 -0.0494408 0
0.223545 -0.048923 0
0.21872 -0.0497894 0
0.193614 -0.0478517 0
0.311239 -0.0383395 0
0.329295 -0.0514422 0
0.336171 -0.0553889 0
0.219077 -0.0503004 0
0.318539 -0.045129 0
0.311235 -0.0401866 0
0.224429 -0.0503446 0
0.24559 -0.0508931 0
0.219574 -0.0510388 0
0.213396 -0.0514741 0
0.30448 -0.0549104 0
0.31122 -0.0424752 0
0.318406 -0.0480253 0
0.220251 -0.052091 0
0.22537 -0.0518155 0
0.328569 -0.0567933 0
0.311185 -0.0453447 0
0.204644 -0.0521977 0
0.323613 -0.0548954 0
0.318206 -0.0516499 0
0.221152 -0.0535711 0
0.120698 -0.0292602 0
0.160101 -0.04187 0
0.33196 -0.062481 0
0.227825 -0.0536704 0
0.208766 -0.0538657 0
0.311113 -0.0489567 0
0.331411 -0.062333 0
0.317532 -0.0623888 0
0.192799 -0.051194 0
0.317972 -0.0551996 0
0.22232 -0.0556381 0
0.327549 -0.0630967 0
0.21707 -0.0559408 0
0.303406 -0.0467143 0
0.217154 -0.0560622 0
0.217237 -0.0561838 0
0.231549 -0.05565 0
0.198264 -0.0534882 0
0.303409 -0.047409 0
0.274655 -0.0595728 0
0.217355 -0.0563635 0
0.310977 -0.0534878 0
0.217474 -0.0565438 0
0.303412 -0.0480999 0
0.217641 -0.0568061 0
0.303414 -0.0489034 0
0.217807 -0.0570698 0
0.317629 -0.059564 0
0.303415 -0.0497023 0
0.218039 -0.057448 0
0.303414 -0.0506575 0
0.218269 -0.0578291 0
0.20367 -0.0558625 0
0.303411 -0.0516066 0
0.212013 -0.057633 0
0.324212 -0.068793 0
0.218585 -0.0583686 0
0.322341 -0.0653872 0
0.303405 -0.0527673 0
0.223701 -0.0585367 0
0.218896 -0.0589138 0
0.239144 -0.0585317 0
0.310732 -0.0591162 0
0.303396 -0.0539197 0
0.317232 -0.0638221 0
0.326403 -0.0691787 0
0.214071 -0.0588228 0
0 0 0
0.219309 -0.0596774 0
0.30338 -0.0553519 0
0.191756 -0.0545247 0
0.219712 -0.0604531 0
0.303359 -0.0567723 0
0.303326 -0.0585528 0
0.220232 -0.0615278 0
0.249312 -0.0623515 0
0.316671 -0.0689575 0
0.303286 -0.0603161 0
0.310308 -0.066003 0
0.220719 -0.0626306 0
0.225888 -0.0626613 0
0.325302 -0.0760288 0
0.202499 -0.0594947 0
0.303223 -0.06253 0
0.324753 -0.0762085 0
0.30525 -0.0725611 0
0.119185 -0.0313325 0
0.221312 -0.0641402 0
0.215067 -0.0633253 0
0.303149 -0.064718 0
0.215207 -0.0635686 0
0.316031 -0.0739453 0
0.215413 -0.0639299 0
0.294235 -0.0594242 0
0.263635 -0.0683812 0
0.320341 -0.0773718 0
0.215706 -0.0644588 0
0.221804 -0.0656926 0
0.303037 -0.0674529 0
0.29424 -0.0609361 0
0.21011 -0.0636718 0
0.190494 -0.0578223 0
0.216111 -0.065222 0
0.294239 -0.0626442 0
0.196017 -0.0601334 0
0.309599 -0.0742713 0
0.205761 -0.0634609 0
0.302906 -0.0701489 0
0.216651 -0.0663096 0
0.22239 -0.0677224 0
0.294229 -0.0646265 0
0.32277 -0.0827336 0
0.23218 -0.0692428 0
0.315152 -0.0798259 0
0.294206 -0.0669814 0
0.217338 -0.0678406 0
0.200992 -0.0633575 0
0.278224 -0.0757922 0
0.302713 -0.0734863 0
0.222885 -0.0697809 0
0.157057 -0.0477067 0
0.29416 -0.0698289 0
0.30249 -0.0767666 0
0.218152 -0.0699706 0
0.0643695 -0.0161324 0
0.314166 -0.0855138 0
0.294075 -0.0733095 0
0.189016 -0.061093 0
0.223534 -0.0724659 0
0.308456 -0.0839733 0
0.30217 -0.0807713 0
0.315688 -0.0890035 0
0.212439 -0.0704873 0
0.212504 -0.0706113 0
0.212569 -0.0707356 0
0.212663 -0.0709191 0
0.292451 -0.0854526 0
0.212757 -0.0711032 0
0.21907 -0.0728868 0
0.317272 -0.0905391 0
0.212891 -0.0713708 0
0.293927 -0.0775789 0
0.213023 -0.0716396 0
0.213209 -0.0720245 0
0.207473 -0.0702126 0
0.199291 -0.0671665 0
0.284775 -0.0720437 0
0.224322 -0.0752315 0
0.21339 -0.0724118 0
0.117258 -0.033145 0
0.301804 -0.0846933 0
0.284778 -0.0728669 0
0.249717 -0.080163 0
0.213639 -0.0729575 0
0.284779 -0.0736873 0
0.312786 -0.0920281 0
0.21388 -0.0735079 0
0.284779 -0.0745996 0
0.284777 -0.0755085 0
0.214201 -0.0742714 0
0.293675 -0.0827985 0
0.284773 -0.0765452 0
0.208927 -0.0727823 0
0.214507 -0.0750431 0
0.284765 -0.0775774 0
0.220082 -0.0768107 0
0.301292 -0.0893995 0
0.192976 -0.0667335 0
0.284753 -0.0787834 0
0.187348 -0.0643118 0
0.301858 -0.0942211 0
0.227008 -0.0788524 0
0.214901 -0.0760975 0
0.284738 -0.0799834 0
0.306671 -0.0950681 0
0.215272 -0.0771637 0
0.284714 -0.0814137 0
0.311247 -0.0983623 0
0 0 0
0.284685 -0.0828358 0
0.293259 -0.0891205 0
0.30071 -0.0939898 0
0.215716 -0.0786037 0
0.284643 -0.0845557 0
0.1972 -0.0711886 0
0.231445 -0.0830039 0
0.284593 -0.0862635 0
0.216135 -0.0800639 0
0.201005 -0.0736692 0
0.221021 -0.0820711 0
0.284521 -0.0883462 0
0.208918 -0.0781059 0
0.209039 -0.0783535 0
0.209213 -0.0787205 0
0.204323 -0.0765517 0
0.299916 -0.0993922 0
0.216616 -0.0820119 0
0.306361 -0.103746 0
0.20946 -0.0792561 0
0.284437 -0.0904109 0
0.277303 -0.096033 0
0.185475 -0.0674812 0