# vtk DataFile Version 3.0
File generated from DClib
ASCII

DATASET UNSTRUCTURED_GRID
POINTS 1909 float
50 0 0 
48.75 0 0 
50 1.66667 0 
47.5 0 0 
50 3.33333 0 
46.25 0 0 
50 5 0 
45 0 0 
43.75 0 0 
50 6.66667 0 
43 2 0 
42.5 0 0 
50 8.33333 0 
43 4.66667 0 
41.25 0 0 
41.075 2 0 
50 10 0 
40 0 0 
43 7.33333 0 
39.15 2 0 
38.75 0 0 
43 10 0 
37.5 0 0 
37.225 2 0 
36.25 0 0 
36 4 0 
35.3 2 0 
36 5 0 
35 0 0 
35.325 4 0 
36 6 0 
36 7 0 
34.65 4 0 
36 8 0 
33.75 0 0 
33.975 4 0 
36 9 0 
33.375 2 0 
33.3 4 0 
36 10 0 
32.5 0 0 
32.625 4 0 
33 6 0 
31.95 4 0 
33 7.45455 0 
31.45 2 0 
31.25 0 0 
31.95 6 0 
33 8.79545 0 
31.275 4 0 
33 10 0 
30.6 4 0 
30 0 0 
30.9 6 0 
29.925 4 0 
29.525 2 0 
29.85 6 0 
29.25 4 0 
28.75 0 0 
30 8 0 
30 8.45455 0 
28.575 4 0 
29.625 8 0 
30 8.90909 0 
28.8 6 0 
30 9.25 0 
29.782 8.90909 0 
30 9.59091 0 
29.9487 9.59091 0 
29.25 8 0 
29.7462 9.25 0 
30 9.79545 0 
29.897 9.59091 0 
29.564 8.90909 0 
29.9547 9.79545 0 
29.3462 8.45455 0 
29.84 9.59091 0 
30 10 0 
29.8975 9.79545 0 
29.9882 10 0 
29.9902 10.0098 0 
29.7827 9.59091 0 
29.9765 10 0 
29.9804 10.0196 0 
29.9667 10.0098 0 
29.9591 10 0 
29.9686 10.0196 0 
29.9659 10.0341 0 
29.9569 10.0196 0 
29.9418 10 0 
29.9395 10.0196 0 
29.9515 10.0485 0 
29.932 10.0098 0 
29.9424 10.0341 0 
29.8241 9.79545 0 
29.7181 9.59091 0 
29.9166 10 0 
29.9397 10.0485 0 
29.9222 10.0196 0 
29.9279 10.0485 0 
29.9305 10.0695 0 
29.8914 10 0 
29.9077 10.0341 0 
27.9 4 0 
29.897 10.0196 0 
29.9106 10.0485 0 
29.8817 10.0098 0 
29.907 10.0695 0 
29.8933 10.0485 0 
29.9095 10.0905 0 
29.8719 10.0196 0 
27.6 2 0 
29.8556 10 0 
29.8978 10.0905 0 
29.6531 9.59091 0 
29.3437 8.90909 0 
27.5 0 0 
29.8681 10.0485 0 
29.886 10.0905 0 
29.8574 10.0341 0 
29.4839 9.25 0 
29.8723 10.0695 0 
29.7289 9.79545 0 
29.836 10.0196 0 
29.8687 10.0905 0 
29.8197 10 0 
29.8797 10.1203 0 
29.843 10.0485 0 
29.8513 10.0905 0 
29.81 10.0098 0 
29.8561 10.1203 0 
29.8002 10.0196 0 
29.8221 10.0695 0 
29.8072 10.0485 0 
29.8262 10.0905 0 
29.5782 9.59091 0 
29.8498 10.1502 0 
29.7695 10 0 
29.7858 10.0341 0 
29.838 10.1502 0 
29.8215 10.1203 0 
29.8011 10.0905 0 
29.8262 10.1502 0 
29.7714 10.0485 0 
28.875 8 0 
29.75 10.0196 0 
29.8089 10.1502 0 
29.7654 10.0905 0 
29.7193 10 0 
29.7916 10.1502 0 
29.7505 10.0695 0 
29.8079 10.1921 0 
29.7713 10.1203 0 
29.7096 10.0098 0 
29.6047 9.79545 0 
29.503 9.59091 0 
29.7213 10.0485 0 
29.7665 10.1502 0 
29.6999 10.0196 0 
29.7844 10.1921 0 
29.7296 10.0905 0 
29.6856 10.0341 0 
29.7414 10.1502 0 
29.7497 10.1921 0 
29.6503 10 0 
29.7661 10.2339 0 
29.6712 10.0485 0 
29.6999 10.1203 0 
29.7543 10.2339 0 
29.6796 10.0905 0 
29.7057 10.1502 0 
29.7425 10.2339 0 
29.1235 8.90909 0 
29.6309 10.0196 0 
29.6504 10.0695 0 
29.4146 9.59091 0 
29.7252 10.2339 0 
29.6996 10.1921 0 
29.6701 10.1502 0 
29.7079 10.2339 0 
29.6296 10.0905 0 
29.5813 10 0 
29.6023 10.0485 0 
29.5716 10.0098 0 
29.6828 10.2339 0 
29.7086 10.2914 0 
29.2101 9.25 0 
29.562 10.0196 0 
29.6201 10.1502 0 
29.6578 10.2339 0 
29.4428 9.79545 0 
29.5999 10.1203 0 
29.6849 10.2914 0 
29.6283 10.1921 0 
29.5477 10.0341 0 
29.3259 9.59091 0 
29.5608 10.0905 0 
29.5335 10.0485 0 
29.6221 10.2339 0 
29.6503 10.2914 0 
29.5702 10.1502 0 
29.4881 10 0 
29.5128 10.0695 0 
29.6511 10.3489 0 
29.5866 10.2339 0 
29.6392 10.3489 0 
29.4689 10.0196 0 
29.6002 10.2914 0 
29.6273 10.3489 0 
29.4921 10.0905 0 
29.61 10.3489 0 
29.5286 10.1921 0 
29.5016 10.1502 0 
29.5368 10.2339 0 
29.5926 10.3489 0 
29.4405 10.0485 0 
29.2199 9.59091 0 
29.4626 10.1203 0 
29.3949 10 0 
28.9 8.90909 0 
29.5676 10.3489 0 
29.5291 10.2914 0 
29.3853 10.0098 0 
28.6923 8.45455 0 
29.487 10.2339 0 
29.5426 10.3489 0 
29.3758 10.0196 0 
29.5734 10.4266 0 
29.4331 10.1502 0 
29.3993 10.0905 0 
28.5 8 0 
29.3617 10.0341 0 
29.5496 10.4266 0 
29.5071 10.3489 0 
29.2327 9.79545 0 
29.3475 10.0485 0 
29.1136 9.59091 0 
29.4187 10.2339 0 
29.5148 10.4266 0 
29.4716 10.3489 0 
29.3918 10.1921 0 
29.3271 10.0695 0 
29.4298 10.2914 0 
29.2714 10 0 
29.3406 10.1502 0 
28.9208 9.25 0 
29.3066 10.0905 0 
29.4648 10.4266 0 
29.422 10.3489 0 
29.4958 10.5042 0 
29.2524 10.0196 0 
27.75 6 0 
29.3504 10.2339 0 
29.4837 10.5042 0 
29.4718 10.5042 0 
29.2774 10.1203 0 
29.4543 10.5042 0 
29.3724 10.3489 0 
29.2244 10.0485 0 
29.4369 10.5042 0 
29.3938 10.4266 0 
28.9853 9.59091 0 
29.2481 10.1502 0 
28.6766 8.90909 0 
29.4119 10.5042 0 
29.2934 10.2914 0 
27.225 4 0 
29.148 10 0 
29.2582 10.2339 0 
29.1837 10.0905 0 
29.3869 10.5042 0 
29.1385 10.0098 0 
29.3044 10.3489 0 
29.1291 10.0196 0 
29.2072 10.1921 0 
29.3514 10.5042 0 
29.1152 10.0341 0 
29.3929 10.6071 0 
29.2949 10.4266 0 
29.1013 10.0485 0 
29.3686 10.6071 0 
29.316 10.5042 0 
29.2364 10.3489 0 
28.9623 9.79545 0 
29.1257 10.1502 0 
29.1662 10.2339 0 
29.0811 10.0695 0 
28.8566 9.59091 0 
29.3336 10.6071 0 
29.2666 10.5042 0 
29.0609 10.0905 0 
28.9875 10 0 
29.2835 10.6071 0 
29.1448 10.3489 0 
29.0321 10.1203 0 
29.2173 10.5042 0 
29.1098 10.2914 0 
28.125 8 0 
28.9688 10.0196 0 
29.1594 10.4266 0 
28.611 9.25 0 
29.29 10.71 0 
28.4486 8.90909 0 
29.0443 10.2339 0 
29.0033 10.1502 0 
29.2777 10.71 0 
28.9413 10.0485 0 
29.2128 10.6071 0 
29.2655 10.71 0 
29.1497 10.5042 0 
29.2478 10.71 0 
28.7003 9.59091 0 
29.0533 10.3489 0 
29.2303 10.71 0 
28.9629 10.1921 0 
28.9013 10.0905 0 
29.2051 10.71 0 
29.0822 10.5042 0 
29.1801 10.71 0 
28.827 10 0 
29.1144 10.6071 0 
28.8177 10.0098 0 
28.9225 10.2339 0 
28.8085 10.0196 0 
29.1447 10.71 0 
28.7949 10.0341 0 
28.8443 10.1502 0 
28.977 10.4266 0 
28.9322 10.3489 0 
29.1094 10.71 0 
28.7813 10.0485 0 
28.9912 10.5042 0 
29.1562 10.8438 0 
28.5436 9.59091 0 
28.7615 10.0695 0 
28.8669 10.2914 0 
29.1313 10.8438 0 
28.6184 9.79545 0 
29.0602 10.71 0 
28.2207 8.90909 0 
28.7418 10.0905 0 
28.0378 8.45455 0 
28.9798 10.6071 0 
29.0958 10.8438 0 
29.0112 10.71 0 
28.9005 10.5042 0 
28.7136 10.1203 0 
28.7644 10.2339 0 
28.8113 10.3489 0 
29.0454 10.8438 0 
28.6223 10 0 
28.6854 10.1502 0 
28.2746 9.25 0 
28.9441 10.71 0 
28.6042 10.0196 0 
27.75 8 0 
28.9747 10.8438 0 
28.6459 10.1921 0 
28.5773 10.0485 0 
29.0225 10.9775 0 
28.3532 9.59091 0 
28.7804 10.5042 0 
28.736 10.4266 0 
28.8772 10.71 0 
29.0097 10.9775 0 
28.9971 10.9775 0 
28.799 10.6071 0 
28.9791 10.9775 0 
28.5384 10.0905 0 
28.6064 10.2339 0 
28.6543 10.3489 0 
28.9611 10.9775 0 
28.8769 10.8438 0 
27.9867 8.90909 0 
26.25 0 0 
28.9358 10.9775 0 
28.7871 10.71 0 
28.9106 10.9775 0 
28.6607 10.5042 0 
28.4177 10 0 
26.55 4 0 
28.552 10.2914 0 
28.483 10.1502 0 
28.4087 10.0098 0 
28.8751 10.9775 0 
28.3998 10.0196 0 
28.3866 10.0341 0 
28.8399 10.9775 0 
28.6974 10.71 0 
28.3735 10.0485 0 
28.1625 9.59091 0 
28.7436 10.8438 0 
28.4976 10.3489 0 
28.3543 10.0695 0 
28.791 10.9775 0 
28.4052 10.2339 0 
28.3352 10.0905 0 
28.8519 11.1481 0 
28.1869 9.79545 0 
28.5607 10.6071 0 
28.5053 10.5042 0 
28.7423 10.9775 0 
28.8258 11.1481 0 
28.308 10.1203 0 
28.5787 10.71 0 
27.904 9.25 0 
28.7893 11.1481 0 
28.424 10.4266 0 
27.7528 8.90909 0 
28.2807 10.1502 0 
28.6758 10.9775 0 
27.375 8 0 
28.7383 11.1481 0 
28.1619 10 0 
28.5649 10.8438 0 
28.2425 10.1921 0 
28.6096 10.9775 0 
28.1444 10.0196 0 
28.298 10.3489 0 
28.4605 10.71 0 
26.7 6 0 
27.9315 9.59091 0 
28.3503 10.5042 0 
28.6676 11.1481 0 
28.1187 10.0485 0 
28.2042 10.2339 0 
28.5207 10.9775 0 
28.0813 10.0905 0 
28.6814 11.3186 0 
27.3818 8.45455 0 
28.6679 11.3186 0 
28.1516 10.2914 0 
28.5703 11.1481 0 
28.6544 11.3186 0 
28.6358 11.3186 0 
27.5109 8.90909 0 
28.3072 10.71 0 
28.6173 11.3186 0 
28.2524 10.6071 0 
28.4322 10.9775 0 
28.028 10.1502 0 
28.5915 11.3186 0 
28.0989 10.3489 0 
28.33 10.8438 0 
28.5658 11.3186 0 
28.153 10.5042 0 
27.9061 10 0 
27.8975 10.0098 0 
28.5303 11.3186 0 
28.4384 11.1481 0 
27.7002 9.59091 0 
27.889 10.0196 0 
27.8765 10.0341 0 
28.4949 11.3186 0 
28.3154 10.9775 0 
27.9532 10.2339 0 
27.8639 10.0485 0 
28.0276 10.4266 0 
28.1544 10.71 0 
27.8457 10.0695 0 
27.4909 9.25 0 
28.4463 11.3186 0 
27 8 0 
27.8275 10.0905 0 
28.3979 11.3186 0 
27.8015 10.1203 0 
27.6542 9.79545 0 
25.675 2 0 
28.1991 10.9775 0 
27.2691 8.90909 0 
27.9563 10.5042 0 
28.4682 11.5318 0 
28.2625 11.1481 0 
27.7755 10.1502 0 
28.3322 11.3186 0 
27.8502 10.3489 0 
28.4401 11.5318 0 
25.875 4 0 
27.7391 10.1921 0 
28.4019 11.5318 0 
28.0268 10.8438 0 
28.2668 11.3186 0 
27.9602 10.71 0 
28.3498 11.5318 0 
27.4223 9.59091 0 
27.7026 10.2339 0 
27.5927 10 0 
28.0486 10.9775 0 
27.8616 10.6071 0 
27.5762 10.0196 0 
28.1794 11.3186 0 
28.2786 11.5318 0 
27.5519 10.0485 0 
27.6524 10.2914 0 
28.0319 11.1481 0 
27.7108 10.5042 0 
27.5167 10.0905 0 
27.0169 8.90909 0 
28.0924 11.3186 0 
27.6021 10.3489 0 
27.8988 10.9775 0 
28.1818 11.5318 0 
27.7667 10.71 0 
26.625 8 0 
28.255 11.745 0 
27.4664 10.1502 0 
28.2402 11.745 0 
28.2256 11.745 0 
28.2059 11.745 0 
27.978 11.3186 0 
26.7234 8.45455 0 
27.0259 9.25 0 
27.5342 10.4266 0 
28.1863 11.745 0 
27.1442 9.59091 0 
28.0516 11.5318 0 
28.1598 11.745 0 
27.3959 10.2339 0 
28.1334 11.745 0 
27.2793 10 0 
27.2714 10.0098 0 
27.2635 10.0196 0 
27.7086 10.9775 0 
27.6431 10.8438 0 
28.0975 11.745 0 
27.8643 11.3186 0 
27.4661 10.5042 0 
27.2518 10.0341 0 
27.2401 10.0485 0 
28.0617 11.745 0 
26.7648 8.90909 0 
27.5255 10.71 0 
27.7353 11.1481 0 
27.2231 10.0695 0 
28.0133 11.745 0 
27.2061 10.0905 0 
27.8791 11.5318 0 
27.2986 10.3489 0 
27.1818 10.1203 0 
27.9651 11.745 0 
27.3758 10.6071 0 
27.0077 9.79545 0 
27.7174 11.3186 0 
27.1576 10.1502 0 
25 0 0 
27.5193 10.9775 0 
27.9003 11.745 0 
27.1236 10.1921 0 
26.25 8 0 
27.9939 12.0061 0 
25.65 6 0 
27.8359 11.745 0 
26.8136 9.59091 0 
27.0896 10.2339 0 
27.9626 12.0061 0 
27.2853 10.71 0 
25.2 4 0 
27.5713 11.3186 0 
27.9218 12.0061 0 
26.4998 8.90909 0 
27.167 10.5042 0 
27.6541 11.5318 0 
27.0427 10.2914 0 
27.7503 11.745 0 
26.9033 10 0 
27.8677 12.0061 0 
26.8882 10.0196 0 
26.8659 10.0485 0 
26.9958 10.3489 0 
27.2836 10.9775 0 
27.6652 11.745 0 
27.3609 11.1481 0 
27.7955 12.0061 0 
26.499 9.25 0 
[...]
POINT_DATA 1909
SCALARS phi float 1
LOOKUP_TABLE default
VECTORS Displacement float
0 0 0
0 0 0
0 -0.00583 0
0 0 0
0 -0.0080625 0
0 0 0
0 -0.00698038 0
0 0 0
0 0 0
0 -0.00291234 0
0.0165524 -0.00505324 0
0 0 0
0 0.00387863 0
0.0320917 -0.0030018 0
0 0 0
0.0224624 -0.00494964 0
0 0.0126007 0
0 0 0
0.0426517 0.00712132 0
0.028959 -0.00502264 0
0 0 0
0.0482919 0.0231572 0
0 0 0
0.0359058 -0.00539498 0
0 0 0
0.0680367 -0.00333671 0
0.0429183 -0.00607139 0
0.0801818 0.000792764 0
0 0 0
0.0729924 -0.00368529 0
0.0888962 0.00636045 0
0.0945174 0.0130304 0
0.0778607 -0.00412101 0
0.0978891 0.0200551 0
0 0 0
0.0827041 -0.00481765 0
0.100527 0.0273876 0
0.0495473 -0.00700861 0
0.0874118 -0.0056163 0
0.10302 0.0359469 0
0 0 0
0.0918936 -0.00658189 0
0.117455 0.00331034 0
0.0961501 -0.00764557 0
0.128664 0.015211 0
0.0553758 -0.00815195 0
0 0 0
0.127326 -0.0005946 0
0.133455 0.0312807 0
0.100088 -0.00882822 0
0.134313 0.0541711 0
0.10371 -0.0100984 0
0 0 0
0.135658 -0.00467344 0
0.106976 -0.0114556 0
0.0600591 -0.00945674 0
0.142686 -0.00910331 0
0.109858 -0.0128937 0
0 0 0
0.166973 0.00143629 0
0.171772 0.00515339 0
0.112367 -0.0143917 0
0.170425 -0.00156197 0
0.176454 0.00983322 0
0.148384 -0.0138598 0
0.179943 0.0165417 0
0.178997 0.0069208 0
0.183515 0.0260892 0
0.184289 0.0238163 0
0.173471 -0.00463937 0
0.183284 0.0113827 0
0.184371 0.0327092 0
0.185037 0.0219205 0
0.181286 0.004312 0
0.185117 0.0304082 0
0.178193 -0.0011428 0
0.185773 0.0200123 0
0.184612 0.0402933 0
0.186104 0.0277417 0
0.184955 0.0404214 0
0.250445 0.0640324 0
0.186457 0.0183305 0
0.185345 0.0403768 0
0.296759 0.0797481 0
0.248885 0.0630948 0
0.18595 0.0402627 0
0.295137 0.0788134 0
0.300049 0.0793219 0
0.293287 0.0776848 0
0.186607 0.040011 0
0.290165 0.0761031 0
0.300179 0.0783819 0
0.246165 0.0611882 0
0.298548 0.0774477 0
0.187439 0.0248554 0
0.187148 0.0166249 0
0.187576 0.039328 0
0.300044 0.07757 0
0.28702 0.074382 0
0.299929 0.07683 0
0.300608 0.0773694 0
0.188577 0.0386007 0
0.295157 0.0749065 0
0.114451 -0.0159746 0
0.282655 0.0718119 0
0.299546 0.0758843 0
0.242602 0.057743 0
0.300399 0.0759822 0
0.299006 0.0748373 0
0.300184 0.0762341 0
0.278503 0.0692511 0
0.0633219 -0.0108955 0
0.189941 0.0371287 0
0.300122 0.0755528 0
0.187782 0.0150564 0
0.183505 0.00187622 0
0 0 0
0.297847 0.0731783 0
0.300041 0.0748496 0
0.289571 0.0707929 0
0.186274 0.00741181 0
0.299961 0.0738397 0
0.189191 0.0217868 0
0.273252 0.0654541 0
0.299898 0.0737423 0
0.191276 0.0357217 0
0.299652 0.0746603 0
0.296212 0.0713367 0
0.299743 0.0725822 0
0.238395 0.0523562 0
0.299508 0.0731436 0
0.268299 0.0618442 0
0.298625 0.0702915 0
0.293517 0.0684192 0
0.299462 0.0708303 0
0.188461 0.0134155 0
0.298902 0.0728925 0
0.192966 0.0334867 0
0.281529 0.0642812 0
0.29882 0.0720931 0
0.299259 0.0707578 0
0.299143 0.0690365 0
0.298737 0.0712751 0
0.290369 0.0654418 0
0.176387 -0.00773394 0
0.26218 0.0568748 0
0.298603 0.0700505 0
0.298454 0.0664929 0
0.194514 0.0313996 0
0.298462 0.068813 0
0.295216 0.0648715 0
0.297814 0.0702682 0
0.298835 0.0671826 0
0.233433 0.0450849 0
0.191348 0.0185103 0
0.189093 0.0118576 0
0.285754 0.0611723 0
0.298252 0.0670097 0
0.256584 0.0523245 0
0.297657 0.0685809 0
0.297494 0.0639428 0
0.270778 0.0553815 0
0.298037 0.065224 0
0.297409 0.066087 0
0.196365 0.0286488 0
0.296692 0.067547 0
0.280903 0.0570592 0
0.297959 0.0621691 0
0.296603 0.0666861 0
0.295655 0.0604442 0
0.297725 0.0627224 0
0.296513 0.0658318 0
0.185552 -0.000528609 0
0.249848 0.0465708 0
0.288557 0.0573374 0
0.18983 0.0101893 0
0.296382 0.064585 0
0.297032 0.062554 0
0.297422 0.0603134 0
0.296251 0.063357 0
0.29326 0.0570079 0
0.197936 0.0260707 0
0.274298 0.0516343 0
0.227656 0.0364605 0
0.296067 0.0616127 0
0.295169 0.0637876 0
0.189019 0.00368851 0
0.243965 0.0414433 0
0.296886 0.0571065 0
0.295886 0.0599172 0
0.193829 0.0149647 0
0.295639 0.0556171 0
0.295009 0.0621133 0
0.296503 0.0578234 0
0.257549 0.0446467 0
0.190552 0.00858951 0
0.289298 0.052489 0
0.267817 0.0465878 0
0.295632 0.0575879 0
0.294773 0.0597295 0
0.296227 0.0540746 0
0.199733 0.02308 0
0.27775 0.0477558 0
0.29367 0.0601291 0
0.295383 0.0553617 0
0.29359 0.0593148 0
0.237144 0.0354457 0
0.294438 0.0564532 0
0.293511 0.0585149 0
0.284764 0.048137 0
0.293397 0.0573627 0
0.295744 0.0518479 0
0.294838 0.0501958 0
0.295051 0.0523991 0
0.293285 0.0562391 0
0.259491 0.0403909 0
0.191432 0.00682098 0
0.290045 0.047499 0
0.201164 0.0202454 0
0.187494 -0.00294936 0
0.293128 0.0546582 0
0.293983 0.0521359 0
0.221277 0.0272037 0
0.183401 -0.00732443 0
0.294741 0.0496258 0
0.292975 0.0531314 0
0.231564 0.030233 0
0.29183 0.0554513 0
0.2929 0.0464944 0
0.278073 0.0426468 0
0.178941 -0.0109285 0
0.242702 0.032956 0
0.291687 0.0539393 0
0.292764 0.0510419 0
0.196486 0.0109955 0
0.251778 0.0347758 0
0.192339 0.00512923 0
0.294279 0.0460536 0
0.291483 0.0518188 0
0.292564 0.049048 0
0.293993 0.0446447 0
0.262555 0.0364952 0
0.293405 0.046713 0
0.202746 0.0171065 0
0.289333 0.0418628 0
0.191586 -7.25266e-05 0
0.271022 0.0374418 0
0.291199 0.0489289 0
0.292293 0.0464022 0
0.290007 0.0510534 0
0.225473 0.0244231 0
0.152681 -0.0188785 0
0.293761 0.0427476 0
0.289944 0.0503406 0
0.289882 0.049642 0
0.279268 0.037698 0
0.289794 0.0486411 0
0.292034 0.0439042 0
0.24262 0.0282378 0
0.289708 0.0476656 0
0.290818 0.0451269 0
0.193435 0.00318817 0
0.284902 0.037385 0
0.189297 -0.00537345 0
0.289585 0.0462972 0
0.292697 0.0401759 0
0.116146 -0.0175881 0
0.203971 0.0141005 0
0.292603 0.0386206 0
0.261576 0.031115 0
0.289465 0.0449732 0
0.215111 0.0178661 0
0.291697 0.0406712 0
0.220933 0.0194887 0
0.288965 0.0361703 0
0.289297 0.0431581 0
0.22821 0.0212169 0
0.28788 0.0457057 0
0.290325 0.0402998 0
0.23487 0.0225567 0
0.287768 0.044401 0
0.289133 0.0414155 0
0.291381 0.0376492 0
0.199127 0.00631611 0
0.27793 0.0318599 0
0.290858 0.0347169 0
0.244187 0.0241932 0
0.194553 0.00131097 0
0.287607 0.0425819 0
0.288908 0.0390839 0
0.252395 0.0253077 0
0.205271 0.0106713 0
0.287383 0.0400981 0
0.29095 0.0338135 0
0.262234 0.0262183 0
0.28869 0.0368624 0
0.291204 0.0324852 0
0.181264 -0.014103 0
0.216423 0.0140538 0
0.289713 0.0343753 0
0.193972 -0.00404209 0
0.285742 0.0407319 0
0.190958 -0.00786786 0
0.287372 0.0299421 0
0.270071 0.0265357 0
0.285698 0.0401217 0
0.226805 0.0162099 0
0.287076 0.0367972 0
0.285654 0.0395224 0
0.288397 0.0339662 0
0.285591 0.0386689 0
0.195882 -0.000894547 0
0.290481 0.0302631 0
0.285529 0.0378335 0
0.277673 0.0261538 0
0.241633 0.0185375 0
0.28544 0.0366627 0
0.288115 0.0312256 0
0.285351 0.0355225 0
0.206292 0.00737575 0
0.286667 0.0325421 0
0.210729 0.00877108 0
0.282728 0.0253303 0
0.213611 0.00950664 0
0.285224 0.0339544 0
0.217241 0.0102747 0
0.259387 0.020163 0
0.288994 0.027334 0
0.289379 0.0258978 0
0.285098 0.032437 0
0.221021 0.0109949 0
0.287751 0.0277419 0
0.283232 0.034811 0
0.197187 -0.00305493 0
0.226837 0.0119859 0
0.286221 0.0236479 0
0.283151 0.0336785 0
0.201594 0.000638127 0
0.284921 0.0303957 0
0.192488 -0.0103595 0
0.23272 0.0128206 0
0.187543 -0.0136243 0
0.286132 0.0272327 0
0.283034 0.0321087 0
0.284744 0.0284354 0
0.287411 0.0244787 0
0.241074 0.0137769 0
0.275102 0.019809 0
0.287619 0.0218143 0
0.282869 0.0299632 0
0.207317 0.00348997 0
0.248838 0.0143613 0
0.196231 -0.00827383 0
0.2845 0.0258625 0
0.211366 0.00451171 0
0.183217 -0.0173289 0
0.282641 0.0270956 0
0.258349 0.0146612 0
0.216231 0.00532507 0
0.280773 0.0292819 0
0.198694 -0.00562618 0
0.28697 0.0204295 0
0.287524 0.0192301 0
0.28426 0.0234154 0
0.280739 0.0287444 0
0.280706 0.0282158 0
0.285463 0.0208452 0
0.28066 0.0274727 0
0.224321 0.00638601 0
0.266115 0.0144774 0
0.283934 0.0169851 0
0.280613 0.0267437 0
0.282332 0.023371 0
0.193871 -0.012931 0
0 0 0
0.280546 0.0257292 0
0.283942 0.0202958 0
0.280479 0.0247385 0
0.286489 0.0167166 0
0.208148 -0.000254671 0
0.117394 -0.019305 0
0.273757 0.0135949 0
0.237255 0.00760235 0
0.209339 2.23104e-06 0
0.280384 0.0233805 0
0.210423 0.000193399 0
0.211907 0.000404852 0
0.280288 0.0220631 0
0.283635 0.0173665 0
0.213501 0.00061591 0
0.200108 -0.00816821 0
0.281924 0.0186989 0
0.27882 0.0123808 0
0.21607 0.0009346 0
0.280156 0.0202935 0
0.254249 0.00824199 0
0.218935 0.00126524 0
0.277844 0.0227652 0
0.203878 -0.00616813 0
0.284726 0.0135064 0
0.285345 0.0123053 0
0.280025 0.0185924 0
0.277789 0.0217565 0
0.223474 0.00172287 0
0.283263 0.0137605 0
0.1984 -0.0128139 0
0.277711 0.0203846 0
0.282264 0.0103554 0
0.195109 -0.0154975 0
0.22844 0.00213136 0
0.279849 0.0163641 0
0.1849 -0.020553 0
0.277602 0.0185323 0
0.208871 -0.00470321 0
0.281411 0.0130795 0
0.235758 0.00255029 0
0.279679 0.0142481 0
0.210083 -0.0046105 0
0.270331 0.00707961 0
0.282946 0.0104305 0
0.155527 -0.0241015 0
0.201673 -0.0112054 0
0.283522 0.00825811 0
0.277453 0.0160762 0
0.21198 -0.00452684 0
0.243024 0.00270106 0
0.279462 0.0115546 0
0.215279 -0.00439646 0
0.27496 0.0166941 0
0.190648 -0.0199899 0
0.274938 0.0162154 0
0.252269 0.00249955 0
0.277253 0.0129056 0
0.274917 0.0157454 0
0.274888 0.0150996 0
0.196211 -0.0181458 0
0.28252 0.00640944 0
0.274859 0.0144673 0
0.283224 0.00543372 0
0.279261 0.00903004 0
0.221293 -0.00419626 0
0.274819 0.0136014 0
0.260188 0.00187244 0
0.280795 0.00660725 0
0.27478 0.0127574 0
0.279572 0.00353834 0
0.209492 -0.00898378 0
0.209847 -0.00901776 0
0.274726 0.0116135 0
0.276994 0.00894492 0
0.203071 -0.014221 0
0.210214 -0.00905116 0
0.210788 -0.00909713 0
0.274673 0.010506 0
0.279009 0.00589274 0
0.231948 -0.00401542 0
0.211402 -0.00913856 0
0.268259 0.000514281 0
0.282009 0.0026763 0
0.212386 -0.00918769 0
0.200435 -0.0177534 0
0.274602 0.00902818 0
0.186225 -0.0237911 0
0.213456 -0.00923287 0
0.274535 0.00760821 0
0.21519 -0.0092797 0
0.206199 -0.0140249 0
0.0649315 -0.0124472 0
0.278759 0.00292915 0
0.197163 -0.0207811 0
0.273739 -0.00112307 0
0.271734 0.00980134 0
0.276667 0.00415223 0
0.217182 -0.00931036 0
0.274445 0.0057503 0
0.247683 -0.00440719 0
0.271705 0.00890595 0
0.118237 -0.0210148 0
0.220472 -0.00933693 0
0.271663 0.00772545 0
0.280046 -0.000826265 0
0.274359 0.00397363 0
0.280776 -0.00184057 0
0.271606 0.00616526 0
0.204492 -0.017818 0
0.224319 -0.00936648 0
0.210095 -0.0139458 0
0.278438 -0.000736721 0
0.277491 -0.00360605 0
0.210582 -0.0140899 0
0.274248 0.00168976 0
0.271528 0.00412044 0
0.211375 -0.0142933 0
0.23026 -0.00950581 0
0.276243 -0.00160739 0
0.264225 -0.00651194 0
0.212674 -0.0145838 0
0.198005 -0.0235067 0
0.274131 -0.000511505 0
0.236656 -0.00983109 0
0.278067 -0.00425853 0
0.271424 0.00148065 0
0.278785 -0.00613058 0
0.187282 -0.0270394 0
0.268409 0.00341804 0
0.214893 -0.0149992 0
0.268403 0.00299409 0
0.268398 0.00257742 0
0.268392 0.00202288 0
0.27397 -0.00331671 0
0.192748 -0.0263782 0
0.2022 -0.0232262 0
0.24519 -0.0106187 0
0.268386 0.00147866 0
0.205673 -0.021389 0
0.271285 -0.00187905 0
0.268377 0.000748887 0
0.219022 -0.0155866 0
0.268368 3.39927e-05 0
0.21065 -0.0187361 0
0.210838 -0.0188244 0
0.211038 -0.0189094 0
0.277489 -0.008594 0
0.278276 -0.00945261 0
0.268356 -0.000923209 0
0.273783 -0.0060467 0
0.253019 -0.0118088 0
0.21132 -0.0190417 0
0.211612 -0.0191729 0
0.268343 -0.00186002 0
0.198686 -0.0262206 0
0.274259 -0.0111159 0
0.27559 -0.00857792 0
0.212053 -0.0193621 0
0.268325 -0.00310674 0
0.212506 -0.0195528 0
0.271087 -0.00613566 0
0.226961 -0.0164871 0
0.213198 -0.0198194 0
0.268303 -0.00432854 0
0.261372 -0.0138343 0
0.208532 -0.0229371 0
0.273506 -0.00949232 0
0.213923 -0.0200904 0
0 0 0
0.276813 -0.0127339 0
0.26827 -0.00594324 0
0.215063 -0.0204594 0
0.188011 -0.0302842 0
0.264715 -0.00369789 0
0.156907 -0.0294902 0
0.268229 -0.00753101 0
0.206724 -0.0255952 0
0.216343 -0.0208288 0
0.264709 -0.00452854 0
0.267299 -0.0161088 0
0.118616 -0.022859 0
0.273187 -0.0128379 0
0.2647 -0.00559273 0
0.19925 -0.0290549 0
0.240268 -0.018176 0
0.270764 -0.0114923 0
0.218481 -0.0213222 0
0.268156 -0.00960768 0
0.211493 -0.0241404 0
0.264686 -0.0069778 0
0.211732 -0.0243517 0
0.21214 -0.0246506 0
0.221076 -0.0218195 0
0.275267 -0.0177084 0
0.268069 -0.0116493 0
0.274511 -0.0168659 0
0.264663 -0.0087945 0
0.203506 -0.029353 0
0.212778 -0.0250807 0
0.271476 -0.0192907 0
0.272713 -0.0169586 0
0.22529 -0.0225616 0
0.264623 -0.0111785 0
0.267935 -0.0142835 0
0.213736 -0.0257079 0
0.256409 -0.0215944 0
0.199643 -0.0318801 0
0.193919 -0.0327571 0
0.207447 -0.0297629 0
0.270209 -0.0180897 0
0.230246 -0.0234345 0
0.188483 -0.0335354 0
0.260932 -0.0105024 0
0.215217 -0.0266212 0
0.267779 -0.0168608 0
0.260936 -0.0109234 0
0.264546 -0.0142894 0
0.272874 -0.0224165 0
0.260939 -0.0113401 0
0.272165 -0.0209319 0
0.260943 -0.0118733 0
0.260946 -0.0124014 0
0.260948 -0.0130906 0
0.212061 -0.0294078 0
0.237278 -0.0249045 0
0.212192 -0.029514 0
0.212322 -0.0296207 0
0.260949 -0.0137734 0
0.212505 -0.0297796 0
0.217766 -0.0279512 0
0.267541 -0.020116 0
0.212687 -0.0299395 0
0.260946 -0.0146736 0
0.212947 -0.0301736 0
0.264402 -0.018297 0
0.260941 -0.0155652 0
0.213205 -0.0304101 0
0.213569 -0.0307516 0
0.199893 -0.0348578 0
0.244407 -0.0267594 0
0.260929 -0.0167431 0
0.272186 -0.0263826 0
0.271355 -0.0257294 0
0.21393 -0.031098 0
0.267264 -0.0232835 0
0.260913 -0.0179087 0
0.267358 -0.0275773 0
0.210062 -0.0330912 0
0.21443 -0.0315901 0
0.269259 -0.02598 0
0.222791 -0.0299166 0
0.260885 -0.0194419 0
0.207933 -0.0345803 0
0.214927 -0.0320922 0
0.188664 -0.0367783 0
0.264137 -0.0233521 0
0.118576 -0.0246407 0
0.26085 -0.0209547 0
0.252531 -0.0295945 0
0.204136 -0.036225 0
0.215648 -0.0327846 0
0.266856 -0.0271914 0
0.256475 -0.0183826 0
0.270421 -0.0303018 0
0.260792 -0.0229237 0
0.256481 -0.0192706 0
0.216404 -0.033487 0
0.199965 -0.0378246 0
0.256484 -0.0203705 0
0.212488 -0.0354007 0
0.212696 -0.0356175 0
0.260722 -0.0248594 0
0.258776 -0.0326882 0
0.232371 -0.0330012 0
0.256483 -0.0217654 0
0.213007 -0.0359405 0
0.217654 -0.0344093 0
0.266386 -0.0309749 0
0.213454 -0.0364156 0
0.194199 -0.0391436 0
0.263662 -0.029576 0
0.256474 -0.0235594 0
0.26061 -0.0273405 0
0.219082 -0.0353546 0
0.214079 -0.0371066 0
0.156823 -0.0350191 0
0.268397 -0.0356338 0
0.208013 -0.0393467 0
0.256447 -0.0258765 0
0.267713 -0.0351323 0
0.188603 -0.0400275 0
0.260476 -0.0297709 0
0.263548 -0.0367541 0
0.214926 -0.0381032 0
0.221529 -0.0366405 0
0.199862 -0.0409713 0
0.265707 -0.0355246 0
0.256385 -0.0288576 0
0 0 0
0.26027 -0.0328296 0
0.246515 -0.0379632 0
0.251893 -0.0261491 0
0.21605 -0.0395257 0
0.224548 -0.038041 0
0.251897 -0.0266239 0
0.2519 -0.0270953 0
0.064687 -0.0140677 0
0.212362 -0.0413236 0
0.251903 -0.027671 0
0.262841 -0.0370356 0
0.212465 -0.041438 0
0.212567 -0.0415529 0
0.251905 -0.0282423 0
0.265279 -0.0406098 0
0.212712 -0.041723 0
0.25626 -0.0326526 0
0.260029 -0.0358131 0
0.251907 -0.0289579 0
0.212857 -0.0418941 0
0.264923 -0.0398959 0
0.213062 -0.0421438 0
0.251906 -0.0296677 0
0.213264 -0.0423954 0
0.229264 -0.0401389 0
0.251903 -0.0305726 0
0.217654 -0.0415457 0
0.213547 -0.0427579 0
0.203853 -0.0438961 0
0.118051 -0.0265929 0
0.251898 -0.0314692 0
0.199577 -0.0441022 0
0.213826 -0.0431241 0
0.188278 -0.0432669 0
0.251887 -0.0326232 0
0.214207 -0.0436442 0
0.25967 -0.039492 0
0.207682 -0.044766 0
0.209921 -0.044574 0
0.251872 -0.0337648 0
0.214577 -0.0441716 0
0.256022 -0.0374095 0
0.234783 -0.0426248 0
0.251845 -0.0352363 0
0.264588 -0.0453239 0
0.215075 -0.0449081 0
0.263808 -0.0450554 0
0.193617 -0.0455486 0
0.220226 -0.0444901 0
0.25819 -0.0455695 0
0.251811 -0.0366895 0
0.215552 -0.0456579 0
0.259253 -0.0430639 0
0.261471 -0.0457246 0
0.251756 -0.0385528 0
0.216174 -0.0466851 0
0.241569 -0.0463072 0
0.199078 -0.0474361 0
0.24639 -0.03516 0
0.255595 -0.0432549 0
0.211672 -0.0479756 0
0.251689 -0.0403889 0
0.246396 -0.0361847 0
0.211837 -0.0482054 0
0.216768 -0.0477332 0
0.212079 -0.0485471 0
0.187722 -0.0465053 0
0.246398 -0.0373954 0
0.258654 -0.0473679 0
0.262541 -0.0499635 0
0.212426 -0.0490483 0
0.251583 -0.0427193 0
0.246394 -0.0388654 0
0.217526 -0.049142 0
0.225228 -0.0489581 0
0.212908 -0.0497731 0
0.206884 -0.0501085 0
0.247593 -0.0504035 0
0.24638 -0.0406866 0
0.251458 -0.0450087 0
0.213559 -0.0508081 0
0.218253 -0.0505827 0
0.257968 -0.0515311 0
0.246346 -0.0429701 0
0.198392 -0.0507471 0
0.254859 -0.0502727 0
0.251267 -0.0478724 0
0.214409 -0.0522682 0
0.117102 -0.0283993 0
0.155295 -0.0406437 0
0.259697 -0.055466 0
0.219238 -0.052533 0
0.202378 -0.0523811 0
0.246276 -0.0458446 0
0.259305 -0.0555596 0
0.252776 -0.0556553 0
0.186929 -0.0497249 0
0.251043 -0.050676 0
0.215482 -0.0543062 0
0.257001 -0.0564259 0
0.210426 -0.0544571 0
0.240624 -0.0440958 0
0.210503 -0.0545745 0
0.21058 -0.0546922 0
0.220345 -0.054557 0
0.192216 -0.0519609 0
0.240628 -0.0446518 0
0.23488 -0.0556514 0
0.210692 -0.0548661 0
0.246145 -0.0494504 0
0.210802 -0.0550407 0
0.24063 -0.0452048 0
0.210961 -0.0552947 0
0.240632 -0.0458482 0
0.211117 -0.0555501 0
0.250714 -0.0541217 0
0.240633 -0.0464878 0
0.211337 -0.0559162 0
0.240632 -0.0472527 0
0.211554 -0.0562851 0
0.197435 -0.0542771 0
0.240629 -0.0480128 0
0.205506 -0.056042 0
0.255079 -0.0605558 0
0.211851 -0.0568065 0
0.253641 -0.0584857 0
0.240623 -0.0489424 0
0.216763 -0.0571364 0
0.212142 -0.0573333 0
0.222599 -0.0572129 0
0.245908 -0.0539289 0
0.240613 -0.0498656 0
0.250332 -0.0574814 0
0.255893 -0.0611325 0
0.207498 -0.0572075 0
0 0 0
0.21253 -0.0580679 0
0.240597 -0.051013 0
0.185915 -0.0529323 0
0.212906 -0.0588131 0
0.240577 -0.0521511 0
0.240544 -0.0535778 0
0.213391 -0.0598396 0
0.225526 -0.0601741 0
0.249787 -0.0615302 0
0.240504 -0.0549909 0
0.245494 -0.0594077 0
0.21385 -0.0608877 0
0.218105 -0.0610673 0
0.254879 -0.0662778 0
0.196292 -0.0577737 0
0.240443 -0.0567654 0
0.254407 -0.0665954 0
0.245954 -0.0650381 0
0.115641 -0.0303971 0
0.214418 -0.0623147 0
0.208436 -0.0615667 0
0.240369 -0.0585192 0
0.208572 -0.0618035 0
0.249164 -0.0654616 0
0.20877 -0.062155 0
0.233727 -0.0543226 0
0.229796 -0.0643655 0
0.251716 -0.0678555 0
0.209052 -0.0626692 0
0.214924 -0.0637855 0
0.240258 -0.0607114 0
0.233731 -0.0555437 0
0.203638 -0.0618526 0
0.18469 -0.0561069 0
0.20944 -0.063411 0
0.23373 -0.0569238 0
0.190028 -0.0583589 0
0.244801 -0.0659824 0
0.199433 -0.061618 0
0.240128 -0.0628727 0
0.20996 -0.0644672 0
0.215513 -0.0657551 0
0.23372 -0.0585256 0
0.252728 -0.0717288 0
0.219908 -0.066643 0
0.248305 -0.0700946 0
0.233696 -0.060429 0
0.210624 -0.0659535 0
0.194824 -0.0614908 0
0.234503 -0.0692131 0
0.239937 -0.0655481 0
0.215965 -0.0677842 0
0.152352 -0.0462645 0
0.233649 -0.0627311 0
0.239716 -0.0681778 0
0.211424 -0.0680224 0
0.0624765 -0.0156559 0
0.247341 -0.0745751 0
0.233564 -0.0655457 0
0.183258 -0.0592543 0
0.216404 -0.070413 0
0.24368 -0.0736955 0
0.239399 -0.0713877 0
0.248602 -0.0770325 0
0.205858 -0.068447 0
0.20592 -0.068567 0
0.205981 -0.0686872 0
0.206071 -0.0688649 0
0.238882 -0.0755878 0
0.20616 -0.0690431 0
0.212302 -0.0708703 0
0.248787 -0.0781665 0
0.206288 -0.0693023 0
0.233414 -0.0689988 0
0.206415 -0.0695627 0
0.206593 -0.0699355 0
0.201061 -0.0681407 0
0.193171 -0.0651543 0
0.226469 -0.0645717 0
0.216738 -0.0730771 0
0.206767 -0.0703107 0
0.113782 -0.0321439 0
0.239035 -0.0745312 0
0.226472 -0.0652429 0
0.223706 -0.0748198 0
0.207005 -0.0708396 0
0.226473 -0.065912 0
0.246015 -0.0797107 0
0.207235 -0.0713731 0
0.226472 -0.066656 0
0.22647 -0.0673972 0
0.207542 -0.0721135 0
0.233161 -0.073221 0
0.226465 -0.0682428 0
0.202455 -0.0706291 0
0.207833 -0.0728623 0
0.226457 -0.0690848 0
0.213157 -0.0747334 0
0.238527 -0.0783026 0
0.187079 -0.064709 0
0.226444 -0.0700686 0
0.181643 -0.0623513 0
0.241467 -0.0818572 0
0.217108 -0.0765413 0
0.208206 -0.0738857 0
0.226428 -0.0710477 0
0.241931 -0.0825073 0
0.208554 -0.0749231 0
0.226403 -0.0722148 0
0.244517 -0.0846752 0
0 0 0
0.226373 -0.0733751 0
0.232742 -0.0783346 0
0.237951 -0.0819796 0
0.208973 -0.0763195 0
0.22633 -0.0747787 0
0.191145 -0.069021 0
0.217533 -0.0801436 0
0.226278 -0.0761724 0
0.209353 -0.0777362 0
0.19481 -0.0714306 0
0.213872 -0.0798649 0
0.226204 -0.0778721 0
0.202426 -0.0757615 0
0.202541 -0.0760013 0
0.202708 -0.0763567 0
0.198 -0.0742283 0
0.237164 -0.0863048 0
0.209771 -0.0796147 0
0.242054 -0.0890199 0