# vtk DataFile Version 3.0
File generated from DClib
ASCII

DATASET UNSTRUCTURED_GRID
POINTS 4280 float
50 0 0 
50 0.714286 0 
49.3 0.2 0 
48.75 0 0 
50 1.42857 0 
48.6 0.4 0 
49.3 1.61496 0 
48.6 1.10209 0 
50 2.14286 0 
47.9 0.6 0 
48.6 1.79662 0 
47.5 0 0 
47.3692 0.4 0 
48.6 2.48485 0 
50 2.85714 0 
47.9 1.97408 0 
47.2 0.8 0 
49.3 3.01496 0 
47.2 1.47897 0 
46.8155 0.2 0 
48.6 3.16805 0 
47.2 2.14787 0 
50 3.57143 0 
46.5 1 0 
46.25 0 0 
46.1442 0.4 0 
47.9 3.31694 0 
47.2 2.80837 0 
46.0139 0.8 0 
48.6 3.84746 0 
46.5 2.31851 0 
50 4.28571 0 
45.8 1.2 0 
47.2 3.46216 0 
49.3 4.40598 0 
45.4847 0.6 0 
45.8 1.84767 0 
48.6 4.52436 0 
45.8 2.48653 0 
47.2 4.1109 0 
50 5 0 
45 0 0 
46.5 3.60423 0 
44.9248 0.4 0 
47.9 4.64106 0 
45.1 1.4 0 
44.8356 0.8 0 
45.8 3.11804 0 
48.6 5.2 0 
44.6778 1.2 0 
47.2 4.75629 0 
45.1 2.65245 0 
45.8 3.74367 0 
44.3442 0.2 0 
50 5.71429 0 
44.4 1.6 0 
49.3 5.79402 0 
44.1953 1 0 
46.5 4.87026 0 
44.4 2.21092 0 
48.6 5.87564 0 
45.8 4.3649 0 
47.2 5.4 0 
43.75 0 0 
45.1 3.88102 0 
44.4 2.81679 0 
43.7108 0.4 0 
47.9 5.95894 0 
43.6648 0.8 0 
50 6.42857 0 
45.8 4.98318 0 
43.5624 1.2 0 
43.7 1.8 0 
44.4 3.41847 0 
47.2 6.04371 0 
48.6 6.55254 0 
43.3544 1.6 0 
44.4 4.01679 0 
43.0972 0.6 0 
43.7 2.98009 0 
45.8 5.6 0 
46.5 6.12974 0 
45.1 5.09527 0 
50 7.14286 0 
42.9354 1.4 0 
49.3 7.18504 0 
47.2 6.6891 0 
44.4 4.61259 0 
43 2 0 
48.6 7.23195 0 
43 2.57143 0 
42.5 0 0 
45.8 6.21682 0 
42.5017 0.4 0 
42.501 0.8 0 
43.7 4.15152 0 
47.9 7.28306 0 
42.4536 1.2 0 
44.4 5.20672 0 
43 3.14286 0 
42.3128 1.6 0 
47.2 7.33784 0 
50 7.85714 0 
43 3.71429 0 
45.1 6.30473 0 
42.3 2.2 0 
45.8 6.8351 0 
48.6 7.91515 0 
44.4 5.8 0 
41.8847 0.2 0 
41.9198 1 0 
46.5 7.39577 0 
43 4.28571 0 
42.0375 2 0 
43.7 5.31775 0 
42.3 3.30563 0 
47.2 7.99163 0 
44.4 6.39328 0 
41.6932 1.8 0 
43 4.85714 0 
45.8 7.45633 0 
50 8.57143 0 
49.3 8.58504 0 
41.3439 0.8 0 
41.2972 0.4 0 
48.6 8.60338 0 
41.3509 1.2 0 
41.6 2.4 0 
41.25 0 0 
43 5.42857 0 
41.2749 1.6 0 
47.9 8.62592 0 
42.3 4.41991 0 
41.6 2.93194 0 
44.4 6.98741 0 
45.1 7.51898 0 
43.7 6.48225 0 
41.6 3.46892 0 
47.2 8.65213 0 
45.8 8.08196 0 
41.075 2 0 
43 6 0 
40.7343 0.6 0 
50 9.28571 0 
41.6 4.0101 0 
40.792 1.4 0 
46.5 8.68149 0 
48.6 9.29791 0 
44.4 7.58321 0 
40.9 2.6 0 
42.3 5.53939 0 
41.6 4.55464 0 
40.7206 2.4 0 
43 6.57143 0 
45.8 8.71347 0 
47.2 9.32103 0 
40.4568 2.2 0 
40.9 3.63327 0 
40.254 1.2 0 
41.6 5.10169 0 
40.1929 0.8 0 
40.2405 1.6 0 
43.7 7.64848 0 
40.0971 0.4 0 
44.4 8.18153 0 
50 10 0 
40 0 0 
43 7.14286 0 
49.3 10 0 
45.1 8.74755 0 
40.1125 2 0 
48.6 10 0 
41.6 5.65043 0 
42.3 6.66061 0 
40.2 2.8 0 
47.9 10 0 
40.9 4.69041 0 
45.8 9.35233 0 
40.2 3.29518 0 
39.6701 1 0 
47.2 10 0 
44.4 8.78321 0 
43 7.71429 0 
41.6 6.2 0 
39.8372 2.4 0 
39.694 1.8 0 
40.2 3.79918 0 
39.4356 0.2 0 
46.5 10 0 
40.2 4.31053 0 
40.9 5.76188 0 
41.6 6.74957 0 
43.7 8.81991 0 
45.8 10 0 
43 8.28571 0 
39.1626 1.2 0 
39.2094 1.6 0 
39.5 3 0 
40.2 4.82776 0 
44.4 9.38908 0 
42.3 7.78009 0 
39.3972 2.8 0 
39.0478 0.8 0 
39.15 2 0 
39.2146 2.6 0 
38.901 0.4 0 
41.6 7.29831 0 
45.1 10 0 
40.2 5.34939 0 
39.5 3.9672 0 
38.75 0 0 
43 8.85714 0 
38.9501 2.4 0 
40.9 6.83812 0 
38.6674 1.4 0 
40.2 5.87396 0 
44.4 10 0 
41.6 7.84536 0 
38.606 2.2 0 
39.5 4.9672 0 
38.3929 0.6 0 
38.8 3.2 0 
40.2 6.4 0 
43 9.42857 0 
38.5876 2.8 0 
42.3 8.89437 0 
38.8 3.66388 0 
43.7 10 0 
41.6 8.3899 0 
38.1815 1.6 0 
38.8 4.13784 0 
38.1875 2 0 
38.0762 1.2 0 
40.2 6.92604 0 
40.9 7.90959 0 
39.5 5.98688 0 
38.8 4.6202 0 
37.908 0.8 0 
38.0595 2.4 0 
43 10 0 
41.6 8.93108 0 
37.7087 0.4 0 
38.8 5.10927 0 
40.2 7.45061 0 
38.0611 3.2 0 
38.1 3.4 0 
37.9547 3 0 
37.7017 1.8 0 
37.5 0 0 
38.8 5.60338 0 
37.7714 2.8 0 
37.443 1 0 
42.3 10 0 
39.5 7.01312 0 
40.2 7.97224 0 
38.1 4.31163 0 
41.6 9.46806 0 
38.8 6.10085 0 
37.508 2.6 0 
40.9 8.96673 0 
37.225 2 0 
37.1564 1.6 0 
40.2 8.48947 0 
38.8 6.6 0 
36.9953 0.2 0 
38.1 5.25449 0 
37.1656 2.4 0 
41.6 10 0 
36.9945 1.2 0 
37.3144 3.2 0 
37.4 3.6 0 
39.5 8.0328 0 
37.4 4.04077 0 
36.7732 0.8 0 
38.8 7.09915 0 
40.2 9.00082 0 
36.9491 2.8 0 
37.4 4.4891 0 
38.1 6.21608 0 
36.7483 2.2 0 
36.5198 0.4 0 
36.5593 1.4 0 
40.9 10 0 
38.8 7.59662 0 
37.4 4.94372 0 
40.2 9.50482 0 
37.4 5.40338 0 
36.25 0 0 
36.6653 3.4 0 
36.7058 3.6 0 
36.5602 3.2 0 
38.8 8.09073 0 
36.7 3.8 0 
39.5 9.0328 0 
36.2625 2 0 
37.4 5.86682 0 
38.1 7.18392 0 
36.2685 2.4 0 
36.0701 0.6 0 
36.3802 3 0 
36.134 1.6 0 
40.2 10 0 
36.7 4.67076 0 
37.4 6.33278 0 
38.8 8.5798 0 
35.9172 1.2 0 
36.121 2.8 0 
37.4 6.8 0 
35.643 0.8 0 
35.7154 1.8 0 
38.8 9.06216 0 
36.7 5.55647 0 
38.1 8.14551 0 
36.0058 3.6 0 
35.7826 2.6 0 
39.5 10 0 
37.4 7.26722 0 
35.799 3.2 0 
36 4 0 
35.3339 0.4 0 
36 4.42857 0 
38.8 9.53612 0 
36.7 6.45116 0 
37.4 7.73318 0 
35.2354 1 0 
36 4.85714 0 
35.3686 2.4 0 
35.3 2 0 
36 5.28571 0 
35.1141 1.6 0 
38.1 9.08837 0 
35.2874 2.8 0 
35 0 0 
38.8 10 0 
37.4 8.19662 0 
36 5.71429 0 
35.3002 3.6 0 
35.3345 3.8 0 
35.2028 3.4 0 
36.7 7.34884 0 
34.8439 1.2 0 
35.325 4 0 
35.4 4.4 0 
34.8846 2.2 0 
37.4 8.65628 0 
36 6.14286 0 
35.0311 3.2 0 
34.5624 0.2 0 
36 6.57143 0 
34.5169 0.8 0 
35.4 5.22519 0 
34.7799 3 0 
38.1 10 0 
37.4 9.1109 0 
34.4653 1.4 0 
36.7 8.24353 0 
36 7 0 
34.466 2.4 0 
34.3375 2 0 
35.4 6.02519 0 
34.4488 2.8 0 
37.4 9.55923 0 
34.5892 3.6 0 
36 7.42857 0 
34.1509 0.4 0 
34.65 4 0 
34.8 4.8 0 
34.0965 1.6 0 
36 7.85714 0 
34.8 5.19326 0 
34.2571 3.2 0 
37.4 10 0 
35.4 6.81008 0 
36.7 9.12924 0 
34.0407 2.6 0 
34.8 5.57644 0 
33.7626 0.6 0 
33.75 0 0 
36 8.28571 0 
33.7742 1.2 0 
34.8 5.95123 0 
33.7341 1.8 0 
35.4 7.58992 0 
34.8 6.3193 0 
33.9558 3.8 0 
36 8.71429 0 
33.975 4 0 
34.0731 4.4 0 
33.8733 3.6 0 
34.1583 4.8 0 
34.8 6.68233 0 
33.5609 2.4 0 
33.3945 0.8 0 
33.6055 2.8 0 
34.2 5.2 0 
33.7157 3.4 0 
36.7 10 0 
36 9.14286 0 
33.375 2 0 
34.8 7.04201 0 
33.4772 3.2 0 
35.4 8.37481 0 
34.2 5.9151 0 
34.8 7.4 0 
36 9.57143 0 
33.0439 1 0 
33.081 1.6 0 
32.9704 0.4 0 
34.8 7.75799 0 
33.157 3 0 
34.2 6.60082 0 
33.0159 2.2 0 
33.5208 4.8 0 
33.3 4 0 
36 10 0 
33.1528 3.6 0 
34.8 8.11767 0 
35.4 9.17481 0 
33.6 5.6 0 
32.7077 1.2 0 
34.2 7.2689 0 
34.8 8.4807 0 
33.6 5.9252 0 
32.7578 2.8 0 
32.5 0 0 
32.6535 2.4 0 
33.6 6.24536 0 
34.8 8.84877 0 
32.692 3.2 0 
33.6 6.56133 0 
32.3831 1.4 0 
34.2 7.9311 0 
35.4 10 0 
32.4125 2 0 
32.2755 0.8 0 
32.8871 4.8 0 
34.8 9.22356 0 
33.6 6.87394 0 
32.9869 5.2 0 
32.7578 4.4 0 
32.625 4 0 
32.5653 3.8 0 
32.1354 0.2 0 
33.0317 5.6 0 
33.6 7.18402 0 
32.2847 2.6 0 
32.4279 3.6 0 
34.8 9.60674 0 
34.2 8.59918 0 
32.0673 1.6 0 
33 6 0 
33.6 7.49243 0 
32.2071 3.4 0 
33.6 7.8 0 
34.8 10 0 
31.792 0.4 0 
33 6.57143 0 
33.6 8.10757 0 
31.9061 2.8 0 
34.2 9.2849 0 
31.7572 1.8 0 
31.9018 3.2 0 
32.2571 4.8 0 
31.6442 1.2 0 
32.4654 5.6 0 
31.744 2.4 0 
33.6 8.41598 0 
33 7.14286 0 
31.95 4 0 
31.4674 0.6 0 
33.6 8.72606 0 
31.699 3.6 0 
31.45 2 0 
33 7.71429 0 
34.2 10 0 
33.6 9.03867 0 
31.5146 3 0 
32.4 6.4 0 
31.25 0 0 
32.4 6.64623 0 
31.1593 0.8 0 
33.6 9.35464 0 
32.4 6.89749 0 
33 8.28571 0 
31.7874 5.2 0 
31.901 5.6 0 
31.1428 2.2 0 
31.6305 4.8 0 
32.4 7.15296 0 
31.0552 1.6 0 
31.95 6 0 
33.6 9.6748 0 
31.4529 4.4 0 
32.4 7.41178 0 
31.275 4 0 
31.0508 2.8 0 
30.8653 1 0 
31.107 3.2 0 
33 8.85714 0 
31.9183 6.4 0 
32.4 7.67312 0 
33.6 10 0 
31.1644 3.8 0 
32.4 7.93614 0 
30.8327 2.4 0 
30.9663 3.6 0 
30.6155 0.4 0 
32.4 8.2 0 
31.8 6.8 0 
33 9.42857 0 
30.5831 1.2 0 
31.3385 5.6 0 
32.4 8.46386 0 
31.8 7.22776 0 
31.0072 4.8 0 
30.4875 2 0 
30.6799 3.4 0 
31.4346 6.4 0 
32.4 8.72688 0 
30.5169 2.6 0 
33 10 0 
30.3104 1.4 0 
31.8 7.6849 0 
32.4 8.98822 0 
30.6 4 0 
32.4 9.24704 0 
31.8 8.15967 0 
30.3081 3.2 0 
30.0456 0.8 0 
30 0 0 
32.4 9.50251 0 
30.1923 2.8 0 
30.0447 1.6 0 
30.9 6 0 
30.7778 5.6 0 
30.6 5.2 0 
30.2303 3.6 0 
30.949 6.4 0 
32.4 9.75377 0 
31.2 7.2 0 
31.8 8.64033 0 
30.3869 4.8 0 
31.2 7.37817 0 
29.9198 2.4 0 
32.4 10 0 
30.9131 6.8 0 
31.2 7.56641 0 
29.7128 0.2 0 
29.7836 1.8 0 
30.1571 4.4 0 
31.2 7.76306 0 
31.8 9.1151 0 
29.8561 3 0 
31.2 7.96641 0 
29.925 4 0 
31.2 8.17481 0 
29.5243 1.2 0 
30.7917 7.2 0 
30.2186 5.6 0 
30.4615 6.4 0 
29.4405 0.4 0 
31.8 9.57224 0 
29.525 2 0 
31.2 8.38657 0 
29.7547 3.8 0 
31.2 8.6 0 
29.5055 3.2 0 
31.2 8.81343 0 
31.8 10 0 
29.7694 4.8 0 
29.4911 3.6 0 
29.1815 0.6 0 
30.6 7.6 0 
29.2664 2.2 0 
31.2 9.02519 0 
29.3308 2.8 0 
30.3792 7.2 0 
31.2 9.23359 0 
30.6 7.91767 0 
29.85 6 0 
29.9722 6.4 0 
29.0353 1.6 0 
31.2 9.43694 0 
28.934 0.8 0 
30.6 8.26052 0 
29.6609 5.6 0 
30.0126 6.8 0 
31.2 9.63359 0 
29.0053 2.4 0 
29.25 4 0 
29.1374 3.4 0 
31.2 9.82183 0 
29.4232 5.2 0 
30.6 8.6185 0 
28.75 0 0 
29.9629 7.2 0 
31.2 10 0 
28.6965 1 0 
30.6 8.9815 0 
29.1545 4.8 0 
28.7396 2.6 0 
29.4814 6.4 0 
28.5625 2 0 
30.6 9.33948 0 
28.6995 3.2 0 
30 8 0 
28.7491 3.6 0 
29.8269 7.6 0 
28.4673 1.2 0 
28.869 4.4 0 
30 8.14286 0 
29.1047 5.6 0 
30 8.28571 0 
30.6 9.68233 0 
29.5429 7.2 0 
30 8.42857 0 
28.4669 2.8 0 
28.2668 0.4 0 
30 8.57143 0 
28.575 4 0 
28.2447 1.4 0 
30 8.71429 0 
30.6 10 0 
30 8.85714 0 
29.625 8 0 
30 9 0 
28.9891 6.4 0 
29.1 6.8 0 
28.542 4.8 0 
30 9.14286 0 
29.6296 8.28571 0 
28.3376 3.8 0 
28.1847 3 0 
28.027 1.6 0 
28.8 6 0 
28.0897 2.4 0 
30 9.28571 0 
29.1195 7.2 0 
29.6404 8.57143 0 
30 9.42857 0 
28.5498 5.6 0 
30 9.57143 0 
29.6547 8.85714 0 
27.8241 0.8 0 
30 9.71429 0 
29.25 8 0 
27.8127 1.8 0 
29.2534 8.14286 0 
28.0046 3.6 0 
29.6703 9.14286 0 
29.0422 7.6 0 
30 9.85714 0 
29.2602 8.28571 0 
27.8907 3.2 0 
28.2555 5.2 0 
30 10 0 
29.2698 8.42857 0 
29.6846 9.42857 0 
29.9644 10.0356 0 
29.2816 8.57143 0 
28.4953 6.4 0 
29.9288 10.0712 0 
27.9 4 0 
29.2952 8.71429 0 
27.6 2 0 
28.6928 7.2 0 
27.5 0 0 
29.3098 8.85714 0 
29.6954 9.71429 0 
29.8831 10.1169 0 
29.325 9 0 
27.6007 2.8 0 
29.8373 10.1627 0 
27.9316 4.8 0 
28.875 8 0 
29.3402 9.14286 0 
27.4117 1.2 0 
29.7 10 0 
29.3548 9.28571 0 
29.7792 10.2208 0 
27.5826 3.4 0 
28.8917 8.28571 0 
29.3684 9.42857 0 
[...]
POINT_DATA 4280
SCALARS phi float 1
LOOKUP_TABLE default
-3882.15
-15.5235
-3834.8
-3883.45
-12.869
-3793.51
-14.7627
-18.7517
-10.5782
-3672.31
-18.1979
-3880.92
-3740.06
-17.1667
-8.26907
-20.9417
-3565.6
-11.6365
-25.0358
-3796.91
-16.0386
-25.3092
-6.25455
-3393.58
-3883.65
-3687.42
-19.545
-24.7515
-3485.03
-14.3994
-28.9531
-4.30137
-3243.86
-24.1162
-8.12902
-3556.4
-34.483
-12.7668
-34.274
-22.6031
-2.56971
-3879.58
-27.6373
-3642.3
-16.5596
-3043.29
-3409
-33.2983
-10.6256
-3156.76
-21.0872
-38.7839
-32.2723
-3745.39
-0.96815
-2871.8
-4.41929
-3246.77
-24.5062
-46.9978
-8.60962
-30.4831
-18.7089
-3870.95
-35.7506
-44.9685
-3596.36
-12.208
-3338.01
0
-28.6809
-3076.6
-2663.54
-42.7007
-16.4388
-6.15633
-2792.34
-40.4054
-3438.04
-50.2044
-26.1599
-19.7568
-31.6223
0
-2898.9
-0.757921
-13.4033
-37.9233
-2489.61
-3.95871
-62.0292
-3855.26
-23.7185
-3541.57
-3270.44
-43.8318
-6.94102
-2997.16
-35.4137
-57.0246
-2720.89
-10.6267
0
-52.7561
-26.5945
-2292.18
-20.633
-1.45015
-32.7947
-3674.53
-3098.99
-13.8188
-48.5117
-2426.17
-37.9481
-62.7076
-7.2517
-30.212
-2542.72
-45.0168
-17.7562
0
0
-3189.58
-3487.63
0
-2923.52
-2132.57
-3810.27
-41.4818
-2645.68
-1.4209
-51.9202
-78.3737
-27.5542
-20.9778
-32.6808
-69.7732
-4.32364
-14.3252
-2370.77
-38.781
-3302.14
0
-63.1573
-2749.91
-7.2882
0
-25.0238
-1961.5
-43.8157
-56.6705
-2088.66
-36.05
-11.2443
-1.04414
-2205.78
-75.4596
-2832.95
-52.0324
-3113.53
-2577.1
-28.1765
-3394.9
-22.3936
0
-3756.54
-34.1419
0
-15.0602
-2308.01
0
-47.3446
-38.2958
-1829.84
0
-60.1438
-7.7088
-94.0794
-2931.22
0
-19.9712
-32.2571
-44.5568
-2052.26
-2411.8
-82.2011
-3529.26
-0.911521
-73.5051
-49.7991
-41.6439
-24.432
-4.66785
-31.0942
-2748.71
-2488.99
-1698.07
-65.076
-17.3436
-35.3156
-1805.63
-2995.3
-2251.34
-1912.54
-3303.89
-40.5895
-9.03299
-59.3932
-87.3159
-3626.28
-30.0181
-2005.91
-43.9783
-2576.55
-53.6821
-14.9662
-39.4174
-2103.64
-68.7252
-3091.29
-1605.31
-50.7939
-29.4284
-1788.07
-34.7521
-106.668
-21.1773
-39.9998
-2406.73
-93.1025
-2173.04
-2621.97
-47.6532
-42.4375
-56.6955
-83.2682
-2881.84
-1963.71
-28.9515
-40.5589
-3130.18
-73.8922
-47.3043
-1599.34
-1525.8
-1683.81
-2250.6
-3486.03
-67.6677
-1757.67
-2688.95
-36.2561
-50.5427
-46.6181
-96.7897
-42.6159
-61.4308
-1841.19
-45.0669
-2098.69
-2283.06
-48.6766
-58.4525
-3216.37
-77.8687
-1897.65
-44.7786
-2500.09
-1597.79
-1482.81
-49.7741
-112.869
-2691.59
-55.0675
-50.5091
-1728.03
-100.622
-65.651
-1963.14
-2958.16
-2329.09
-51.7461
-54.9688
-91.7652
-54.8757
-83.4566
-3209.64
-1536.05
-1488.49
-1577.32
-54.206
-1462.42
-54.2629
-1984.24
-77.7446
-59.2253
-1832.73
-2726.22
-1636.24
-2162.55
-59.299
-102.288
-71.9801
-56.8168
-2310.1
-1672.28
-68.9672
-2504.86
-2014.33
-58.7369
-88.2672
-57.8997
-1492.9
-1721.01
-64.0852
-65.4185
-1553.87
-1454.8
-2667.45
-107.49
-63.8726
-78.3895
-64.7616
-2309.43
-102.602
-1728.92
-1870.37
-97.1289
-1982.43
-61.3255
-1614.3
-2932.03
-68.6572
-63.0371
-92.9417
-1474.55
-1475.72
-1497.55
-71.9893
-2123.08
-1463.76
-103.453
-1744.83
-64.4177
-89.0523
-1504.01
-2646.29
-85.7371
-2223.74
-102.631
-1528.97
-69.4828
-64.3389
-1959.67
-68.0938
-82.6326
-1622.72
-1704.05
-102.253
-1519.04
-67.5527
-1449.59
-79.6845
-2383.17
-1470.89
-107.469
-1803.52
-76.8232
-110.887
-1447.64
-69.3029
-101.632
-65.8692
-1519.36
-114.87
-2157.17
-2494.39
-73.6125
-1861.97
-116.805
-1667.67
-100.029
-119.089
-1431.61
-70.4665
-1443.49
-36.283
-1398.8
-41.2933
-119.691
-1470.15
-1949.19
-1418.11
-120.687
-1390.03
-64.9298
-66.5514
-1537.04
-120.123
-1355.54
-96.1078
-129.123
-119.075
-62.7193
-1771.5
-1566.36
-1990
-117.088
-1335.95
-133.847
-1424.49
-15.5715
-1418.02
-58.1864
-1334.61
-114.354
-88.3396
-137.955
-1607.27
-134.03
-109.744
-141.967
-1276.24
-2086.64
-1315.08
-145.806
-105.278
-1254.23
-147.329
-1466.32
-129.247
-79.6067
-1323.57
-1604.18
-1.1199
-98.7695
-148.482
-4.39323
-1.64248
-1344.31
-1303.08
-1839.57
-15.6742
-148.069
-1222.17
-1237.32
-93.1108
-119.927
-1334.91
-157.968
-146.877
-1191.58
-144.269
-85.3395
-1621.74
-160.37
-140.709
-1130.35
-108.605
-1221.97
-1118.02
0
-1306.37
0
-1122.79
-136.828
-159.983
-1267.83
-1440.14
-131.665
-1127.54
-1115.21
-157.102
-98.5152
-128.551
-1054.04
-178.018
-1574.76
-178.135
-1279.46
-122.603
-177.378
-151.773
-2.57351
0
-1023.53
-3.92408
-175.755
-1073.05
0
-120.046
-1.86792
-173.411
-1148.96
-955.734
-1144.74
-977.051
-144.953
-4.01064
-172.223
-116.124
-1081.36
-169.565
-935.281
-991.094
-1208.02
-168.351
-190.683
-138.117
-1024.33
-11.1612
-164.67
-183.022
-20.1789
-886.922
-914.879
0
-163.588
-859.977
-145.827
-921.952
-178.755
-158.763
-1029.49
-158.768
-179.189
-816.305
-941.489
-1139.13
-158.163
-785.976
-829.063
-19.2271
-31.9829
-40.4272
-851.06
-5.54265
-170.306
-195.388
-184.724
-41.2029
-192.849
-735.603
-183.26
0
-189.538
-981.839
-749.47
-34.1327
-188.263
-196.596
-723.642
-187.781
-885.164
-191.465
-743.912
0
-60.4764
-24.4413
-849.034
-217.338
-675.801
-196.335
-801.288
-205.705
-661.26
-216.625
-211.757
-68.6205
-700.495
-739.197
-172.302
-612.483
-233.294
-610.627
-0.814454
-250.51
-166.85
-73.1299
-49.3721
-593.865
-268.346
-645.635
-171.623
-89.1558
-28.9066
-281.417
-552.54
-748.179
-609.917
-264.801
-95.3072
-186.483
-705.879
-11.8077
-234.08
-567.362
-213.54
-94.1886
-501.241
-80.338
-476.928
-257.946
-506.671
-136.922
-558.214
-5.9502
-499.635
-83.4661
-139.07
-120.97
-142.996
-327.44
-30.1959
-148.034
-451.611
-520.596
-154.907
-604.162
-441.916
-163.707
-542.108
-175.156
-7.19744
-188.182
-110.224
-81.4624
-122.417
-205.897
-414.227
-517.195
-409.659
-390.951
-133.695
-383.592
-228.944
-53.2577
-417.256
-263.076
-147.309
-323.452
-410.038
-390.172
-421.496
-17.2989
-347.121
-402.861
-420.97
-394.996
-33.6963
-706.991
-407.11
-368.467
-147.869
-1106.95
-409.953
-368.027
-163.595
-408.982
-142.573
-53.8235
-475.595
-406.996
-307.496
-80.4985
-383.158
-402.131
-304.35
-29.6588
-397.321
-307.848
-13.1436
-143.917
-30.712
-390.363
-295.865
-400.573
-384.603
-12.1669
-334.499
-408.644
-376.026
-174.075
-321.613
-273.348
-37.3765
-366.757
-7.76444
-412.428
-343.998
-406.424
-9.93075
-298.992
-130.95
-19.4668
-142.261
-392.724
-109.465
-246.339
-271.799
-170.321
-7.22263
-45.3988
-20.5293
-241.739
-375.11
-405.345
-19.1862
-13.0633
-412.477
-301.112
-225.744
-78.9446
-187.211
-417.995
-10.0009
-20.7958
-368.911
-420.374
-229.988
-421.444
-19.111
-352.238
-419.512
-246.187
-306.011
-416.435
-7.4365
-164.789
-214.707
-20.1241
-10.1154
-410.359
-402.603
-192.796
-16.3914
-392.402
-16.6032
-64.1815
-195.671
-378.138
-140.366
-10.9413
-367.873
-412.932
-18.205
-15.2316
-356.425
-197.966
-274.7
-422.012
-189.185
-9.22552
-348.355
-172.234
-423.22
-14.5097
-8.64298
-16.0754
-166.558
-186.069
-417.306
-13.5518
-13.6221
-404.79
-17.1946
-14.3954
-379.67
-85.1729
-12.1407
-13.7062
-142.19
-408.489
-167.736
-13.7309
-415.887
-362.314
-170.45
-422.6
-12.6441
-13.7289
-10.4491
-426.594
-201.222
-145.83
-429.913
-196.911
-176.421
-209.741
-430.457
-249.022
-430.263
-139.615
-11.2798
-8.46878
-427.433
-423.86
-11.9477
-17.7977
-417.915
-121.212
-130.622
-218.757
-412.131
-13.5382
-401.311
-8.18873
-392.847
-147.289
-12.6412
-383.914
-11.0349
-14.6164
-110.803
-5.32715
-103.268
-412.453
-19.7084
-224.474
-8.08598
-4.63272
-423.278
-99.4312
-14.2008
-160.105
-428.789
-14.1449
-428.444
-5.84539
-200.181
-421.935
-20.444
-412.016
-4.85333
-130.729
-87.7856
-11.5069
-13.9184
-8.3433
-400.199
-6.40851
-18.686
-98.0766
-217.411
-5.17094
-2.10367
-17.4977
-237.049
-139.309
-184.803
-15.7346
-403.12
-409.264
-415.998
-67.4543
-74.2608
-420.437
-425.362
-427.73
-430.398
-430.239
-7.21384
-430.274
-427.178
-424.327
-159.83
-2.37693
-418.936
-9.13648
-415.151
-114.991
-12.9615
-21.0819
-5.74432
-30.4051
-411.846
-25.6432
-225.361
-205.177
-0.628835
-62.6871
-16.865
-2.78636
-201.757
-0.252195
-8.4745
-246.343
-0.987193
-18.6645
-169.261
-44.9392
-0.488711
-425.111
-400.487
-425.59
-420.065
-411.47
-6.75446
-72.9715
-420.101
-10.7468
-22.9005
-52.4112
-30.191
-3.43613
-1.50156
-415.848
-102.952
-246.471
-221.827
-15.7661
-0.870668
-10.4193
0
-182.926
-2.27044
-43.8128
-247.822
0
-22.9621
-4.46597
-21.998
-34.0751
-8.44097
-31.7793
-422.844
-422.625
-423.952
-419.3
-421.219
-28.8848
-416.88
-1.46591
-411.802
-419.926
-23.3848
-200.586
-407.914
-401.775
-386.015
-397.169
-390.698
-47.0519
-238.123
-418.183
-13.5256
-91.9346
0
-16.7909
0
-3.41439
0
-36.1156
-13.3527
0
-54.5035
-12.2282
-20.3837
-31.5616
-2.39629
0
-6.08155
0
-252.218
-416.288
-414.734
0
-159.712
-408.445
-258.991
-11.1002
-416.633
-29.9119
-17.4603
-398.834
-47.6483
-8.33763
-216.577
-5.11255
-387.675
0
-261.877
-227.483
-376.654
0
0
-30.4054
-29.9335
-17.8877
-5.46627
-0.730619
-3.83935
0
-176.844
-17.6191
-46.5326
-267.049
-24.3975
0
-8.55195
-47.1345
-410.097
-411.366
-409.699
-411.9
-405.737
-3.11226
-402.765
-396.747
0
0
-392.093
0
-7.60235
-9.53469
-385.005
0
-379.745
-70.7391
-372.554
-190.926
-27.3359
-15.0812
-367.627
0
-361.214
-357.393
-252.857
-20.2897
-1.41888
0
-1.94402
-42.6754
-248.062
0
-271.872
0
-44.344
-6.03313
0
-404.089
-399.22
-1.01395
-0.139136
-208.233
-392.553
0
-381.334
-24.2689
-23.5711
-0.738047
-12.1965
-16.7151
-367.923
-40.2275
0
-4.35042
-0.349763
-11.1576
0
0
-72.2902
-354.488
-41.3141
-0.212887
-3.83066
-225.507
0
-342.907
-268.721
-286.692
-161.218
-63.8003
-393.163
0
-390.862
-2.77977
-387.544
0
0
-20.7499
-384.774
-14.3128
-2.44747
-9.25784
-378.486
-2.98487
-373.233
-2.71024
-271.189
-240.753
-365.172
-68.2371
0
-37.1404
0
-1.64498
-358.713
0
-350.101
-1.85338
-1.96358
0
-343.635
-1.29401
-335.54
-0.800555
0
-4.64367
-330.055
-17.3369
-323.391
-16.0426
-12.506
-191.266
-102.589
-380.722
0
-6.65343
-319.684
-1.125
-31.5067
-258.852
-280.612
-372.232
-62.0888
-33.061
-5.43777
-5.23035
-361.388
0
0
0
-0.352799
-346.523
-128.381
0
-53.2632
-6.71267
-4.23129
-0.240405
-330.279
-13.7887
0
-266.619
-4.20122
-56.7201
0
-314.918
-142.757
-364.942
0
-3.09582
-28.4264
0
-361.078
-224.238
-7.97234
-356.15
0
-302.283
-8.28213
-351.471
0
-9.19106
0
-343.616
-280.851
-105.422
-6.66113
-156.296
-336.716
-86.5099
-1.86387
0
-7.05139
-10.6656
-327.342
-9.21407
0
-22.4411
-281.957
-50.2386
-2.23685
-319.574
-5.21176
-24.2245
-309.968
-172.709
-1.2218
-5.62677
-348.831
-302.517
-0.42792
0
-41.6058
-96.1782
-11.9939
-293.712
-0.610463
-337.557
0
-3.62358
-11.7902
-287.497
0
-190.23
-251.545
-7.62677
-280.32
-323.914
-44.5522
-4.04625
-10.2962
-276.027
-0.565527
0
-19.8269
-0.878679
-276.234
-306.753
-1.98304
-85.4619
-206.138
-8.56108
-14.9053
-143.419
0
-69.7692
-329.411
-288.713
0
-117.639
-2.37892
-15.4811
-324.387
-1.11472
-38.3234
-5.12918
-15.7803
-318.408
-14.2456
-3.82554
-271.886
-224.631
-13.6635
-16.0365
-312.458
0
-6.61512
-0.423541
-14.0487
-303.766
-76.5964
-30.3923
-257.859
0
-1.19021
-295.864
-11.6022
-74.2162
-17.532
-148.059
-285.88
-0.75391
-70.3578
-12.0174
-233.929
0
-260.814
-32.9789
-310.824
-2.8635
-277.319
-4.52543
-67.019
-9.28051
-12.2782
-267.24
-1.00968
-20.101
0
-66.9442
-64.9911
-297.787
0
-114.975
-259.066
-9.7137
-53.8979
-18.1081
-63.2794
-147.758
-249.782
-247.113
-181.137
-282.658
-6.7756
-19.2857
-27.4401
-242.757
-0.566659
-2.41971
-62.4425
0
-1.15025
-7.55452
-15.7657
-234.925
-9.17145
-0.21615
-7.19823
-77.3849
-58.9089
-264.502
-289.075
-229.549
0
-61.7652
-24.6075
-20.5077
-283.318
-131.507
-24.8525
-92.7297
-241.312
-4.21514
-13.0931
-22.3029
-245.664
-276.838
0
-61.6145
-22.7866
-107.078
-22.6222
-208.136
-19.4494
-270.216
0
-19.6422
-4.59652
-0.498631
-50.5272
-6.24437
-89.8243
-61.4682
-261.358
-227.886
-123.846
-19.9845
-114.791
-10.1486
-39.7739
0
-253.058
-269.148
-140.619
-16.5978
-61.5405
-1.80142
-243.085
-212.387
-18.1513
-29.7955
-16.9542
-192.777
-234.207
-17.3123
-156.382
-43.5841
-61.4345
-255.337
0
-2.647
-27.3126
-3.93901
-101.177
-224.117
-213.982
-13.2361
-2.1119
0
-7.05641
-12.375
-172.667
-215.501
-61.254
0
-24.3717
-13.5836
-239.915
-14.3424
-205.992
-246.33
-181.715
-68.3005
0
-36.5587
-60.6736
-34.9578
-9.67814
-198.201
-87.4227
-12.3757
-35.1178
-20.9801
0
-1.90644
-240.265
-221.88
-27.7918
-32.1908
-65.4157
-189.735
-4.02227
-190.919
-59.7261
-32.4004
-233.774
-9.99425
-148.963
-183.073
-0.0231604
-28.9535
-10.6834
-96.7698
-203.112
-227.014
-17.1872
-30.7826
-29.1701
-58.137
-76.2055
-184.576
-6.12767
-218.53
-25.2127
0
-0.425484
-226.152
0
-198.394
-55.9551
-127.884
-184.932
-6.1367
-210.334
-25.4284
-40.4836
-205.278
0
-177.029
-6.39392
-7.75623
-13.113
-200.855
-50.3692
-21.0222
-1.33345
-52.9043
-65.0522
-37.5275
-25.0797
-158.333
-212.426
-168.178
-150.693
-173.674
-192.068
-21.219
-18.0422
-34.0087
-49.0201
-113.333
0
-2.87261
0
-182.348
-145.618
-16.4961
-197.65
-203.439
-44.2025
-5.0598
-55.9705
-173.58
-151.45
-46.1187
-29.9224
-20.4392
-8.96682
-149.804
-46.1775
-3.07933
-16.6591
-38.9835
-42.9179
-197.421
-136.309
-164.118
-42.9932
-41.8955
-26.8203
-55.8543
0
-180.59
0
-32.7849
-39.1351
-155.748
-191.288
-25.3091
-72.2378
0
-1.77101
-11.8376
-35.7734
-39.1961
-47.0602
-86.9464
-130.361
-2.98664
-15.9622
-128.306
-0.259415
-146.842
-184.8
-101.373
-34.7362
-247.884
-84.7284
-162.598
-113.733
-11.9592
-183.978
-34.7742
-5.05295
-10.446
-139.026
-177.062
-121.088
-20.284
-51.7701
0
-125.673
-29.7622
-111.675
-39.8285
-119.771
-169.345
-118.909
-48.365
-0.404355
-12.3698
-7.34589
-1.19257
-29.7634
-144.589
-160.694
-170.967
-44.2992
-24.3202
-109.096
-15.0582
-96.4854
-152.321
-7.43106
-32.8185
-187.333
-24.1538
0
-39.5569
-162.384
-127.108
-24.2761
0
0
-57.6851
-8.99328
-62.0173
-143.265
-57.6414
0
-1.74211
-157.47
-54.0816
-95.0739
-156.666
-54.0178
-18.6112
-134.642
-34.1705
-3.39731
-81.9539
-4.8406
-48.0816
-49.7907
-20.5723
-27.1579
-74.3943
-49.6898
-86.9659
-77.1898
-151.111
-90.7819
-125.518
-9.94912
-18.5237
0
-141.954
-6.34033
-44.7819
-253.844
0
-55.6413
-44.633
-28.2502
-3.46243
-145.163
-116.894
-70.1599
-144.44
-139.987
-39.0846
-12.9416
-63.2784
-21.7381
-15.1281
-138.371
-220.446
-107.9
-125.277
-44.1713
-59.455
-38.877
-309.15
-332.567
-289.7
-3.9341
0
-272.881
-360.07
0
-12.8285
-131.374
-58.9259
-54.8827
-99.3738
0
-258.511
-32.7991
-0.379662
-22.0069
-393.693
-132.513
-245.73
-189.2
-5.35869
-17.3947
-1.03196
-32.5289
-123.74
-234.249
-108.036
-49.5359
-58.3309
-124.779
-223.547
-7.71053
-103.199
-69.2819
-2.11096
-64.5411
-49.833
-69.1483
-116.027
-26.123
-213.224
-63.7877
-65.3095
-0.440664
-163.484
-43.4408
-58.8028
0
-50.9223
-65.1201
-39.3631
-120.615
-28.3569
-119.496
-203.075
-15.7664
-13.2972
-60.554
-107.854
-25.7992
-15.5297
-30.3006
-90.6244
-8.3358
-60.3068
-7.60618
-192.542
-6.11421
-54.9922
-41.2102
-139.467
-181.752
-36.7023
-99.6779
-114.596
-0.552976
-302.792
-54.6731
-19.3654
0
-169.98
0
-106.955
-1.70049
0
-108.946
-48.6435
-10.0528
-157.769
-91.1932
-109.318
-74.6702
-74.7647
-3.35257
-144.196
0
-34.0063
-48.2436
-119.777
-19.0165
-130.137
-83.331
-34.2579
-114.661
-99.569
-70.466
-29.5296
-9.95433
-82.7472
0
-41.6031
-103.52
-65.4365
-91.9914
-7.05474
-41.121
-19.6637
-227.56
-12.9406
0
-101.402
-74.1357
-3.29521
-39.6323
-97.3705
-59.5482
-98.2231
-3.46006
-27.7006
-34.064
-91.7938
-30.0092
-80.5834
-22.2518
0
-65.5701
-90.8262
-80.3848
-52.8224
-12.6154
-52.9144
-76.2792
-86.3672
-33.5131
-4.72908
-76.1249
-75.9937
-12.1007
-71.1082
-22.4451
0
-83.9555
-0.225636
-86.9818
-15.274
-70.7492
-5.0312
-87.9884
0
-45.3598
-26.3345
-169.003
-65.0576
-7.31882
-72.3547
0
0
-64.6072
-76.8181
-307.281
-82.6981
-11.6605
-2.65031
-58.1389
-25.7495
-19.3373
-17.5265
-59.7556
-15.3095
-78.443
-57.5885
-0.233142
-69.3916
-37.3658
-85.661
-0.233729
-60.9358
-76.2942
-267.272
-78.1134
-7.07594
-81.1207
-50.4439
-36.2435
-20.3993
-375.015
-18.8355
-423.711
0
-335.261
-61.8458
-75.6916
-1.09872
-49.7923
-123.681
-13.6206
-17.7417
-487.495
-299.818
-73.2505
-230.102
-105.1
-69.3342
-50.3125
-42.1607
-3.29012
-13.9098
-18.2753
-29.1685
-265.179
-54.0734
-1.37149
-68.8664
-2.92247
-63.3303
-147.926
0
-228.89
-7.09409
-67.993
-41.4219
-62.0664
-64.1325
-189.701
-198.842
-9.19914
-575.028
-5.81553
-91.3258
0
-10.0101
0
-91.0965
-86.7317
-46.3663
-1.80064
-41.7021
-86.3923
-12.0605
-33.5931
-62.5292
-81.2003
-23.6488
0
-53.9851
-88.8053
-169.886
-80.7787
0
-59.762
-74.7314
-2.80693
-21.2145
-38.5389
-32.8037
-49.4283
-7.18564
-74.2057
-60.1877
-56.6353
0
-33.717
0
-11.6004
-6.65836
-67.3313
-145.701
0
-45.2907
-55.9942
-66.6915
-347.872
-53.4128
-25.1612
0
-50.6417
-96.0306
-59.0887
-4.63007
-1.75982
-27.2915
-91.2062
-123.332
-4.36049
0
-58.3311
0
-12.6282
-62.1651
-52.063
-6.48291
0
-24.3846
-85.4427
-14.2739
-35.1251
-44.2525
-50.4404
-2.88182
-36.306
-50.1871
-14.0237
-78.6962
0
-264.625
-104.728
-21.3661
0
-48.0207
-2.68353
-49.3226
-37.9244
-17.3696
-70.982
0
-44.8456
-131.202
-6.19241
-42.0403
-101.317
0
-40.9232
0
-101.097
-87.5632
-96.4801
-43.6507
-39.6831
-96.138
-27.4759
-31.3196
-62.3932
-16.6457
-41.9983
-158.183
-1.03315
-90.6505
0
-0.991324
-16.6921
-39.9853
-90.2255
-198.075
0
-83.8392
-7.46356
-38.0663
-184.539
-73.3828
0
-39.219
-83.3051
-25.0146
-53.1239
-2.4182
-31.7099
-212.611
-76.0491
-8.08872
-1.0276
-12.3366
0
-37.5449
-239.335
-75.3933
-10.7273
0
0
-266.687
-10.9756
-421.668
-449.074
-395.701
-60.3452
-34.4039
-292.776
-477.315
-370.027
-34.7132
-319.023
-344.505
-33.9029
-67.3677
-28.28
-508.668
-30.761
-18.67
-105.626
-347.854
-19.3317
-541.662
-145.397
0
-66.5813
0
-100.576
-43.488
-26.9183
-579.912
-8.9566
-94.5507
-29.6291
-57.9731
-2.33048
-49.6501
-305.95
-620.737
-10.2394
-31.3756
0
-23.0522
-87.5013
-11.3215
-2.72219
0
0
-57.0599
-29.6773
-669.58
-266.355
-5.92774
0
-24.527
-79.4407
0
-48.1523
-39.8688
-16.9678
-33.922
-28.0421
-22.183
-104.099
-1.03768
-25.3501
-722.48
-26.2349
0
-232.042
-110.445
-3.73163
-110.271
-47.1376
-5.62184
-70.4565
-105.408
-12.4046
-105.118
-15.851
-19.6525
0
-99.3452
-3.61377
-31.9188
-144.784
-98.9818
-24.5486
-199.846
0
-787.13
-38.3066
-15.4801
-92.2726
-12.4063
-60.7343
-91.8044
-7.83853
-21.2812
-21.7634
0
-84.1888
0
-14.6429
-172.3
-24.9587
-72.089
-37.2455
-24.7095
0
-83.5974
-5.38833
-21.098
-1.61224
-28.1785
-75.177
0
-14.7964
-20.1697
-50.5761
-19.6213
0
-146.591
-32.9027
-18.7765
-74.4449
-114.357
-10.1335
-28.9328
-206.496
0
-7.97146
-109.152
-18.9301
-65.4079
-17.4345
-0.157776
-5.66772
-102.946
-369.362
-124.683
-12.8089
-64.528
-7.094
-95.687
-27.9145
-2.18796
-47.6493
-9.43754
-16.0022
-40.4059
-5.83809
-13.7635
-55.1575
-272.632
-0.981855
-13.9396
-17.1551
-87.3812
0
0
-104.382
-79.9841
0
-289.912
-54.1422
-12.6398
-14.1431
0
-20.5697
-339.978
-7.26639
-13.65
-78.1082
-118.635
-13.3285
-12.7984
-118.558
-87.1928
-9.71117
-52.309
-113.472
-2.64453
-10.3294
-9.03385
-44.8123
-113.286
-406.969
-107.255
-2.22603
0
-107.011
-30.7512
-474.029
-5.16496
0
-68.0429
-29.3965
-100.008
-222.288
-19.7097
-43.7047
-71.3995
-99.6718
-543.288
-10.7034
-10.4404
-6.17745
-91.7257
-7.07545
-9.63109
-163.653
-91.2701
-618.47
-57.4732
-34.8565
0
-19.9673
-82.4834
-58.1564
-8.24171
-5.15835
-10.9747
0
0
-3.54303
-81.8805
-13.7033
-9.90741
-3.5048
-8.24226
-165.624
-122.137
-3.94385
-7.80929
0
-7.99468
-72.4433
-66.9017
-0.262613
-33.7388
-704.89
-116.875
-19.4569
-16.2077
-46.1299
-22.1845
-198.832
-47.0115
-71.6715
-110.597
-46.8084
0
-80.638
0
-103.231
-1.28028
-61.8678
-5.82462
-13.122
-5.09294
-25.8298
-360.602
-1.43938
-36.2064
-5.64493
-118.918
-94.7823
-60.9224
-234.484
-324.337
-33.326
-2.98683
-809.693
0
0
-85.3201
0
-51.1271
-27.3475
-36.5672
-24.8221
-6.82397
-3.66894
-0.561722
-288.384
-125.551
-7.14881
-125.693
0
0
-273.634
-4.06735
-120.26
-3.89205
-120.443
-3.71546
-8.65359
-6.66726
-50.0346
-113.969
-75.0068
-255.601
-15.2221
-114.132
-42.7013
-27.3522
-81.3316
-2.60943
-20.2129
-106.588
0
0
-106.715
-312.154
-66.23
-18.2493
-1.66299
-223.731
-40.6917
-98.1281
-3.66421
-1.62616
-64.1138
-98.1911
-2.65476
-115.049
-2.08796
-352.91
-0.497359
-14.0075
-88.6633
-27.3331
-195.072
-942.586
0
-39.5227
-8.45041
0
0
-88.6285
-1.42381
0
0
-393.163
-17.4943
-52.0595
-168.159
-0.0902286
-78.3518
0
-167.561
0
-53.0338
-1.3592
-9.18805
-0.628188
-2.91579
-48.0303
-3.45791
-434.465
-78.1848
-31.1001
-0.836927