# vtk DataFile Version 3.0
File generated from DClib
ASCII

DATASET UNSTRUCTURED_GRID
POINTS 1909 float
50 0 0 
48.75 0 0 
50 1.66667 0 
47.5 0 0 
50 3.33333 0 
46.25 0 0 
50 5 0 
45 0 0 
43.75 0 0 
50 6.66667 0 
43 2 0 
42.5 0 0 
50 8.33333 0 
43 4.66667 0 
41.25 0 0 
41.075 2 0 
50 10 0 
40 0 0 
43 7.33333 0 
39.15 2 0 
38.75 0 0 
43 10 0 
37.5 0 0 
37.225 2 0 
36.25 0 0 
36 4 0 
35.3 2 0 
36 5 0 
35 0 0 
35.325 4 0 
36 6 0 
36 7 0 
34.65 4 0 
36 8 0 
33.75 0 0 
33.975 4 0 
36 9 0 
33.375 2 0 
33.3 4 0 
36 10 0 
32.5 0 0 
32.625 4 0 
33 6 0 
31.95 4 0 
33 7.45455 0 
31.45 2 0 
31.25 0 0 
31.95 6 0 
33 8.79545 0 
31.275 4 0 
33 10 0 
30.6 4 0 
30 0 0 
30.9 6 0 
29.925 4 0 
29.525 2 0 
29.85 6 0 
29.25 4 0 
28.75 0 0 
30 8 0 
30 8.45455 0 
28.575 4 0 
29.625 8 0 
30 8.90909 0 
28.8 6 0 
30 9.25 0 
29.782 8.90909 0 
30 9.59091 0 
29.9487 9.59091 0 
29.25 8 0 
29.7462 9.25 0 
30 9.79545 0 
29.897 9.59091 0 
29.564 8.90909 0 
29.9547 9.79545 0 
29.3462 8.45455 0 
29.84 9.59091 0 
30 10 0 
29.8975 9.79545 0 
29.9882 10 0 
29.9902 10.0098 0 
29.7827 9.59091 0 
29.9765 10 0 
29.9804 10.0196 0 
29.9667 10.0098 0 
29.9591 10 0 
29.9686 10.0196 0 
29.9659 10.0341 0 
29.9569 10.0196 0 
29.9418 10 0 
29.9395 10.0196 0 
29.9515 10.0485 0 
29.932 10.0098 0 
29.9424 10.0341 0 
29.8241 9.79545 0 
29.7181 9.59091 0 
29.9166 10 0 
29.9397 10.0485 0 
29.9222 10.0196 0 
29.9279 10.0485 0 
29.9305 10.0695 0 
29.8914 10 0 
29.9077 10.0341 0 
27.9 4 0 
29.897 10.0196 0 
29.9106 10.0485 0 
29.8817 10.0098 0 
29.907 10.0695 0 
29.8933 10.0485 0 
29.9095 10.0905 0 
29.8719 10.0196 0 
27.6 2 0 
29.8556 10 0 
29.8978 10.0905 0 
29.6531 9.59091 0 
29.3437 8.90909 0 
27.5 0 0 
29.8681 10.0485 0 
29.886 10.0905 0 
29.8574 10.0341 0 
29.4839 9.25 0 
29.8723 10.0695 0 
29.7289 9.79545 0 
29.836 10.0196 0 
29.8687 10.0905 0 
29.8197 10 0 
29.8797 10.1203 0 
29.843 10.0485 0 
29.8513 10.0905 0 
29.81 10.0098 0 
29.8561 10.1203 0 
29.8002 10.0196 0 
29.8221 10.0695 0 
29.8072 10.0485 0 
29.8262 10.0905 0 
29.5782 9.59091 0 
29.8498 10.1502 0 
29.7695 10 0 
29.7858 10.0341 0 
29.838 10.1502 0 
29.8215 10.1203 0 
29.8011 10.0905 0 
29.8262 10.1502 0 
29.7714 10.0485 0 
28.875 8 0 
29.75 10.0196 0 
29.8089 10.1502 0 
29.7654 10.0905 0 
29.7193 10 0 
29.7916 10.1502 0 
29.7505 10.0695 0 
29.8079 10.1921 0 
29.7713 10.1203 0 
29.7096 10.0098 0 
29.6047 9.79545 0 
29.503 9.59091 0 
29.7213 10.0485 0 
29.7665 10.1502 0 
29.6999 10.0196 0 
29.7844 10.1921 0 
29.7296 10.0905 0 
29.6856 10.0341 0 
29.7414 10.1502 0 
29.7497 10.1921 0 
29.6503 10 0 
29.7661 10.2339 0 
29.6712 10.0485 0 
29.6999 10.1203 0 
29.7543 10.2339 0 
29.6796 10.0905 0 
29.7057 10.1502 0 
29.7425 10.2339 0 
29.1235 8.90909 0 
29.6309 10.0196 0 
29.6504 10.0695 0 
29.4146 9.59091 0 
29.7252 10.2339 0 
29.6996 10.1921 0 
29.6701 10.1502 0 
29.7079 10.2339 0 
29.6296 10.0905 0 
29.5813 10 0 
29.6023 10.0485 0 
29.5716 10.0098 0 
29.6828 10.2339 0 
29.7086 10.2914 0 
29.2101 9.25 0 
29.562 10.0196 0 
29.6201 10.1502 0 
29.6578 10.2339 0 
29.4428 9.79545 0 
29.5999 10.1203 0 
29.6849 10.2914 0 
29.6283 10.1921 0 
29.5477 10.0341 0 
29.3259 9.59091 0 
29.5608 10.0905 0 
29.5335 10.0485 0 
29.6221 10.2339 0 
29.6503 10.2914 0 
29.5702 10.1502 0 
29.4881 10 0 
29.5128 10.0695 0 
29.6511 10.3489 0 
29.5866 10.2339 0 
29.6392 10.3489 0 
29.4689 10.0196 0 
29.6002 10.2914 0 
29.6273 10.3489 0 
29.4921 10.0905 0 
29.61 10.3489 0 
29.5286 10.1921 0 
29.5016 10.1502 0 
29.5368 10.2339 0 
29.5926 10.3489 0 
29.4405 10.0485 0 
29.2199 9.59091 0 
29.4626 10.1203 0 
29.3949 10 0 
28.9 8.90909 0 
29.5676 10.3489 0 
29.5291 10.2914 0 
29.3853 10.0098 0 
28.6923 8.45455 0 
29.487 10.2339 0 
29.5426 10.3489 0 
29.3758 10.0196 0 
29.5734 10.4266 0 
29.4331 10.1502 0 
29.3993 10.0905 0 
28.5 8 0 
29.3617 10.0341 0 
29.5496 10.4266 0 
29.5071 10.3489 0 
29.2327 9.79545 0 
29.3475 10.0485 0 
29.1136 9.59091 0 
29.4187 10.2339 0 
29.5148 10.4266 0 
29.4716 10.3489 0 
29.3918 10.1921 0 
29.3271 10.0695 0 
29.4298 10.2914 0 
29.2714 10 0 
29.3406 10.1502 0 
28.9208 9.25 0 
29.3066 10.0905 0 
29.4648 10.4266 0 
29.422 10.3489 0 
29.4958 10.5042 0 
29.2524 10.0196 0 
27.75 6 0 
29.3504 10.2339 0 
29.4837 10.5042 0 
29.4718 10.5042 0 
29.2774 10.1203 0 
29.4543 10.5042 0 
29.3724 10.3489 0 
29.2244 10.0485 0 
29.4369 10.5042 0 
29.3938 10.4266 0 
28.9853 9.59091 0 
29.2481 10.1502 0 
28.6766 8.90909 0 
29.4119 10.5042 0 
29.2934 10.2914 0 
27.225 4 0 
29.148 10 0 
29.2582 10.2339 0 
29.1837 10.0905 0 
29.3869 10.5042 0 
29.1385 10.0098 0 
29.3044 10.3489 0 
29.1291 10.0196 0 
29.2072 10.1921 0 
29.3514 10.5042 0 
29.1152 10.0341 0 
29.3929 10.6071 0 
29.2949 10.4266 0 
29.1013 10.0485 0 
29.3686 10.6071 0 
29.316 10.5042 0 
29.2364 10.3489 0 
28.9623 9.79545 0 
29.1257 10.1502 0 
29.1662 10.2339 0 
29.0811 10.0695 0 
28.8566 9.59091 0 
29.3336 10.6071 0 
29.2666 10.5042 0 
29.0609 10.0905 0 
28.9875 10 0 
29.2835 10.6071 0 
29.1448 10.3489 0 
29.0321 10.1203 0 
29.2173 10.5042 0 
29.1098 10.2914 0 
28.125 8 0 
28.9688 10.0196 0 
29.1594 10.4266 0 
28.611 9.25 0 
29.29 10.71 0 
28.4486 8.90909 0 
29.0443 10.2339 0 
29.0033 10.1502 0 
29.2777 10.71 0 
28.9413 10.0485 0 
29.2128 10.6071 0 
29.2655 10.71 0 
29.1497 10.5042 0 
29.2478 10.71 0 
28.7003 9.59091 0 
29.0533 10.3489 0 
29.2303 10.71 0 
28.9629 10.1921 0 
28.9013 10.0905 0 
29.2051 10.71 0 
29.0822 10.5042 0 
29.1801 10.71 0 
28.827 10 0 
29.1144 10.6071 0 
28.8177 10.0098 0 
28.9225 10.2339 0 
28.8085 10.0196 0 
29.1447 10.71 0 
28.7949 10.0341 0 
28.8443 10.1502 0 
28.977 10.4266 0 
28.9322 10.3489 0 
29.1094 10.71 0 
28.7813 10.0485 0 
28.9912 10.5042 0 
29.1562 10.8438 0 
28.5436 9.59091 0 
28.7615 10.0695 0 
28.8669 10.2914 0 
29.1313 10.8438 0 
28.6184 9.79545 0 
29.0602 10.71 0 
28.2207 8.90909 0 
28.7418 10.0905 0 
28.0378 8.45455 0 
28.9798 10.6071 0 
29.0958 10.8438 0 
29.0112 10.71 0 
28.9005 10.5042 0 
28.7136 10.1203 0 
28.7644 10.2339 0 
28.8113 10.3489 0 
29.0454 10.8438 0 
28.6223 10 0 
28.6854 10.1502 0 
28.2746 9.25 0 
28.9441 10.71 0 
28.6042 10.0196 0 
27.75 8 0 
28.9747 10.8438 0 
28.6459 10.1921 0 
28.5773 10.0485 0 
29.0225 10.9775 0 
28.3532 9.59091 0 
28.7804 10.5042 0 
28.736 10.4266 0 
28.8772 10.71 0 
29.0097 10.9775 0 
28.9971 10.9775 0 
28.799 10.6071 0 
28.9791 10.9775 0 
28.5384 10.0905 0 
28.6064 10.2339 0 
28.6543 10.3489 0 
28.9611 10.9775 0 
28.8769 10.8438 0 
27.9867 8.90909 0 
26.25 0 0 
28.9358 10.9775 0 
28.7871 10.71 0 
28.9106 10.9775 0 
28.6607 10.5042 0 
28.4177 10 0 
26.55 4 0 
28.552 10.2914 0 
28.483 10.1502 0 
28.4087 10.0098 0 
28.8751 10.9775 0 
28.3998 10.0196 0 
28.3866 10.0341 0 
28.8399 10.9775 0 
28.6974 10.71 0 
28.3735 10.0485 0 
28.1625 9.59091 0 
28.7436 10.8438 0 
28.4976 10.3489 0 
28.3543 10.0695 0 
28.791 10.9775 0 
28.4052 10.2339 0 
28.3352 10.0905 0 
28.8519 11.1481 0 
28.1869 9.79545 0 
28.5607 10.6071 0 
28.5053 10.5042 0 
28.7423 10.9775 0 
28.8258 11.1481 0 
28.308 10.1203 0 
28.5787 10.71 0 
27.904 9.25 0 
28.7893 11.1481 0 
28.424 10.4266 0 
27.7528 8.90909 0 
28.2807 10.1502 0 
28.6758 10.9775 0 
27.375 8 0 
28.7383 11.1481 0 
28.1619 10 0 
28.5649 10.8438 0 
28.2425 10.1921 0 
28.6096 10.9775 0 
28.1444 10.0196 0 
28.298 10.3489 0 
28.4605 10.71 0 
26.7 6 0 
27.9315 9.59091 0 
28.3503 10.5042 0 
28.6676 11.1481 0 
28.1187 10.0485 0 
28.2042 10.2339 0 
28.5207 10.9775 0 
28.0813 10.0905 0 
28.6814 11.3186 0 
27.3818 8.45455 0 
28.6679 11.3186 0 
28.1516 10.2914 0 
28.5703 11.1481 0 
28.6544 11.3186 0 
28.6358 11.3186 0 
27.5109 8.90909 0 
28.3072 10.71 0 
28.6173 11.3186 0 
28.2524 10.6071 0 
28.4322 10.9775 0 
28.028 10.1502 0 
28.5915 11.3186 0 
28.0989 10.3489 0 
28.33 10.8438 0 
28.5658 11.3186 0 
28.153 10.5042 0 
27.9061 10 0 
27.8975 10.0098 0 
28.5303 11.3186 0 
28.4384 11.1481 0 
27.7002 9.59091 0 
27.889 10.0196 0 
27.8765 10.0341 0 
28.4949 11.3186 0 
28.3154 10.9775 0 
27.9532 10.2339 0 
27.8639 10.0485 0 
28.0276 10.4266 0 
28.1544 10.71 0 
27.8457 10.0695 0 
27.4909 9.25 0 
28.4463 11.3186 0 
27 8 0 
27.8275 10.0905 0 
28.3979 11.3186 0 
27.8015 10.1203 0 
27.6542 9.79545 0 
25.675 2 0 
28.1991 10.9775 0 
27.2691 8.90909 0 
27.9563 10.5042 0 
28.4682 11.5318 0 
28.2625 11.1481 0 
27.7755 10.1502 0 
28.3322 11.3186 0 
27.8502 10.3489 0 
28.4401 11.5318 0 
25.875 4 0 
27.7391 10.1921 0 
28.4019 11.5318 0 
28.0268 10.8438 0 
28.2668 11.3186 0 
27.9602 10.71 0 
28.3498 11.5318 0 
27.4223 9.59091 0 
27.7026 10.2339 0 
27.5927 10 0 
28.0486 10.9775 0 
27.8616 10.6071 0 
27.5762 10.0196 0 
28.1794 11.3186 0 
28.2786 11.5318 0 
27.5519 10.0485 0 
27.6524 10.2914 0 
28.0319 11.1481 0 
27.7108 10.5042 0 
27.5167 10.0905 0 
27.0169 8.90909 0 
28.0924 11.3186 0 
27.6021 10.3489 0 
27.8988 10.9775 0 
28.1818 11.5318 0 
27.7667 10.71 0 
26.625 8 0 
28.255 11.745 0 
27.4664 10.1502 0 
28.2402 11.745 0 
28.2256 11.745 0 
28.2059 11.745 0 
27.978 11.3186 0 
26.7234 8.45455 0 
27.0259 9.25 0 
27.5342 10.4266 0 
28.1863 11.745 0 
27.1442 9.59091 0 
28.0516 11.5318 0 
28.1598 11.745 0 
27.3959 10.2339 0 
28.1334 11.745 0 
27.2793 10 0 
27.2714 10.0098 0 
27.2635 10.0196 0 
27.7086 10.9775 0 
27.6431 10.8438 0 
28.0975 11.745 0 
27.8643 11.3186 0 
27.4661 10.5042 0 
27.2518 10.0341 0 
27.2401 10.0485 0 
28.0617 11.745 0 
26.7648 8.90909 0 
27.5255 10.71 0 
27.7353 11.1481 0 
27.2231 10.0695 0 
28.0133 11.745 0 
27.2061 10.0905 0 
27.8791 11.5318 0 
27.2986 10.3489 0 
27.1818 10.1203 0 
27.9651 11.745 0 
27.3758 10.6071 0 
27.0077 9.79545 0 
27.7174 11.3186 0 
27.1576 10.1502 0 
25 0 0 
27.5193 10.9775 0 
27.9003 11.745 0 
27.1236 10.1921 0 
26.25 8 0 
27.9939 12.0061 0 
25.65 6 0 
27.8359 11.745 0 
26.8136 9.59091 0 
27.0896 10.2339 0 
27.9626 12.0061 0 
27.2853 10.71 0 
25.2 4 0 
27.5713 11.3186 0 
27.9218 12.0061 0 
26.4998 8.90909 0 
27.167 10.5042 0 
27.6541 11.5318 0 
27.0427 10.2914 0 
27.7503 11.745 0 
26.9033 10 0 
27.8677 12.0061 0 
26.8882 10.0196 0 
26.8659 10.0485 0 
26.9958 10.3489 0 
27.2836 10.9775 0 
27.6652 11.745 0 
27.3609 11.1481 0 
27.7955 12.0061 0 
26.499 9.25 0 
[...]
POINT_DATA 1909
SCALARS phi float 1
LOOKUP_TABLE default
VECTORS Displacement float
0 0 0
0 0 0
0 -0.00214527 0
0 0 0
0 -0.00110917 0
0 0 0
0 0.00273953 0
0 0 0
0 0 0
0 0.0090624 0
0.0183259 -0.000748941 0
0 0 0
0 0.0176234 0
0.0347242 0.00654239 0
0 0 0
0.0248356 -0.000713578 0
0 0.0275063 0
0 0 0
0.0455352 0.0207903 0
0.0317685 -0.000831085 0
0 0 0
0.0512578 0.0398849 0
0 0 0
0.0389482 -0.00117671 0
0 0 0
0.0729029 0.00501925 0
0.0459774 -0.00171372 0
0.0860853 0.0108182 0
0 0 0
0.0781797 0.00464923 0
0.0951767 0.0181006 0
0.100964 0.0263085 0
0.0832346 0.0042457 0
0.104703 0.0346906 0
0 0 0
0.088273 0.00361695 0
0.107724 0.0436056 0
0.0524968 -0.00241652 0
0.0930628 0.0029439 0
0.110558 0.0541295 0
0 0 0
0.0976053 0.00214766 0
0.125583 0.0156662 0
0.101852 0.00130677 0
0.138041 0.0305611 0
0.0581857 -0.00325808 0
0 0 0
0.136107 0.0117719 0
0.143851 0.0505155 0
0.105805 0.000338882 0
0.145552 0.0780187 0
0.109413 -0.00067832 0
0 0 0
0.14456 0.00815032 0
0.112698 -0.00178608 0
0.0627715 -0.00421903 0
0.151636 0.0043451 0
0.115611 -0.002956 0
0 0 0
0.179288 0.0179693 0
0.185108 0.0224697 0
0.118182 -0.00417762 0
0.18281 0.0152084 0
0.191128 0.0282273 0
0.157433 0.000258633 0
0.195702 0.0362637 0
0.193811 0.0252476 0
0.200503 0.0476981 0
0.201323 0.0450314 0
0.185902 0.0124331 0
0.19924 0.0307322 0
0.201584 0.0554639 0
0.202111 0.042851 0
0.196193 0.0226477 0
0.202377 0.0527123 0
0.191693 0.0165211 0
0.202876 0.0406999 0
0.202017 0.064025 0
0.203447 0.0496128 0
0.202387 0.0642547 0
0.301401 0.100014 0
0.203578 0.0388177 0
0.202816 0.0642472 0
0.379568 0.127242 0
0.299668 0.0990524 0
0.203489 0.0641522 0
0.377764 0.126226 0
0.383324 0.126848 0
0.375685 0.124936 0
0.204226 0.0638954 0
0.372091 0.123088 0
0.383332 0.125766 0
0.296471 0.0968792 0
0.38169 0.124673 0
0.204908 0.0463193 0
0.204281 0.0369259 0
0.205316 0.0631164 0
0.383173 0.124789 0
0.368352 0.121018 0
0.383045 0.123868 0
0.383479 0.12446 0
0.206442 0.0622739 0
0.377827 0.121552 0
0.120378 -0.00548904 0
0.362963 0.117869 0
0.382621 0.122674 0
0.291963 0.0927476 0
0.38327 0.122731 0
0.382049 0.121363 0
0.382731 0.123024 0
0.357662 0.114669 0
0.0660016 -0.00526807 0
0.207978 0.0605708 0
0.382669 0.12217 0
0.204914 0.0352153 0
0.198466 0.0202874 0
0 0 0
0.38078 0.119331 0
0.382585 0.121295 0
0.371128 0.11646 0
0.202302 0.0265846 0
0.382814 0.12008 0
0.206815 0.0428656 0
0.350631 0.109883 0
0.382437 0.119929 0
0.209478 0.0589395 0
0.381787 0.121022 0
0.378979 0.117088 0
0.382274 0.118504 0
0.286116 0.0861605 0
0.381632 0.11915 0
0.343748 0.105246 0
0.381387 0.115752 0
0.375917 0.113567 0
0.381978 0.116358 0
0.205592 0.0334402 0
0.380674 0.118824 0
0.211383 0.0563892 0
0.360926 0.108368 0
0.380579 0.117841 0
0.381365 0.116223 0
0.381636 0.114165 0
0.380482 0.116837 0
0.372244 0.109948 0
0.188876 0.00970252 0
0.334724 0.0987798 0
0.380328 0.115335 0
0.380894 0.111044 0
0.213126 0.0540171 0
0.380168 0.113817 0
0.377598 0.109147 0
0.379105 0.115581 0
0.380912 0.111844 0
0.278412 0.0771184 0
0.209126 0.0392226 0
0.206211 0.0317844 0
0.366641 0.104725 0
0.379929 0.111606 0
0.325983 0.0926852 0
0.378919 0.11351 0
0.37985 0.107916 0
0.346173 0.0970232 0
0.379687 0.109411 0
0.378627 0.11045 0
0.215215 0.0509183 0
0.37756 0.112235 0
0.360511 0.0995926 0
0.37997 0.105677 0
0.377452 0.111178 0
0.377803 0.103606 0
0.379339 0.10633 0
0.377342 0.110129 0
0.200519 0.0180123 0
0.31463 0.0847833 0
0.369749 0.0998478 0
0.206925 0.0300317 0
0.377182 0.108596 0
0.378184 0.106099 0
0.379001 0.103347 0
0.377022 0.107083 0
0.375098 0.0993501 0
0.216982 0.0480411 0
0.351656 0.0927176 0
0.268218 0.066063 0
0.376795 0.104927 0
0.375514 0.107616 0
0.205074 0.0228945 0
0.30387 0.077477 0
0.378407 0.0993465 0
0.376572 0.102822 0
0.21174 0.0353949 0
0.377422 0.0975339 0
0.375311 0.105549 0
0.377562 0.10022 0
0.325808 0.0826831 0
0.207619 0.0283847 0
0.370435 0.0937151 0
0.342403 0.0860966 0
0.376257 0.0999172 0
0.375012 0.102594 0
0.377678 0.0955382 0
0.218984 0.0447326 0
0.355829 0.08767 0
0.373545 0.103108 0
0.375948 0.0971224 0
0.373441 0.102096 0
0.290361 0.0686788 0
0.374582 0.0985022 0
0.373339 0.1011 0
0.364913 0.0882027 0
0.37319 0.0996611 0
0.376678 0.092688 0
0.376111 0.0906205 0
0.375536 0.0933791 0
0.373042 0.0982537 0
0.329495 0.0777717 0
0.208464 0.0266049 0
0.370976 0.0872814 0
0.220547 0.0416397 0
0.202474 0.0158095 0
0.372833 0.0962661 0
0.373989 0.0930549 0
0.255499 0.0538082 0
0.197043 0.0110159 0
0.375151 0.089848 0
0.372626 0.0943381 0
0.278268 0.0608156 0
0.371115 0.0972951 0
0.373925 0.0859021 0
0.356194 0.081181 0
0.191542 0.00688505 0
0.299348 0.0661074 0
0.370924 0.0953927 0
0.37234 0.0916866 0
0.214506 0.0313185 0
0.316412 0.0698434 0
0.209346 0.0249444 0
0.374588 0.0852684 0
0.370648 0.0927101 0
0.372063 0.0891428 0
0.374681 0.0834753 0
0.333446 0.0726382 0
0.373223 0.086126 0
0.222226 0.0382963 0
0.369724 0.0799699 0
0.207654 0.0193174 0
0.346386 0.0742888 0
0.370258 0.0890295 0
0.371684 0.0857483 0
0.368724 0.0917831 0
0.26443 0.0520791 0
0.161867 -0.00404565 0
0.373971 0.0810061 0
0.368638 0.0908757 0
0.368552 0.0899848 0
0.357353 0.0746191 0
0.368428 0.0887067 0
0.371318 0.0825274 0
0.299331 0.0604759 0
0.368306 0.087458 0
0.369718 0.0841484 0
0.210392 0.0230614 0
0.364395 0.0741969 0
0.204281 0.0136113 0
0.36813 0.0857017 0
0.372288 0.07768 0
0.122215 -0.00680357 0
0.223462 0.0351408 0
0.372613 0.0756644 0
0.331827 0.0658847 0
0.367957 0.0839977 0
0.242247 0.0415607 0
0.370842 0.0783425 0
0.253683 0.0448742 0
0.368876 0.0725574 0
0.367712 0.0816549 0
0.269463 0.048931 0
0.365869 0.0849969 0
0.369001 0.0779061 0
0.283426 0.0520103 0
0.365711 0.083319 0
0.36747 0.0794005 0
0.370397 0.0744254 0
0.21722 0.0267455 0
0.355254 0.0671299 0
0.370623 0.0706288 0
0.301145 0.0553405 0
0.211476 0.0212708 0
0.365482 0.0809716 0
0.367136 0.0763786 0
0.316205 0.0576863 0
0.224726 0.031676 0
0.365157 0.0777574 0
0.369815 0.0694658 0
0.332096 0.0593205 0
0.366809 0.0734989 0
0.370487 0.0677439 0
0.193975 0.00405627 0
0.24333 0.0374368 0
0.368098 0.0702325 0
0.210081 0.0156582 0
0.363027 0.0786494 0
0.205956 0.011355 0
0.366485 0.0645165 0
0.344221 0.0600857 0
0.36296 0.0778577 0
0.265702 0.0427055 0
0.364707 0.073479 0
0.362894 0.07708 0
0.366367 0.0697501 0
0.3628 0.0759725 0
0.212746 0.0191783 0
0.369214 0.0649058 0
0.362705 0.0748886 0
0.354534 0.0596482 0
0.295867 0.0482665 0
0.362569 0.0733699 0
0.365941 0.0662192 0
0.362433 0.0718918 0
0.225664 0.0283982 0
0.364096 0.0679762 0
0.232436 0.0305993 0
0.360928 0.0586489 0
0.236993 0.0318295 0
0.36224 0.0698613 0
0.244611 0.0337358 0
0.327238 0.0518987 0
0.367072 0.0612057 0
0.367906 0.0593593 0
0.362048 0.0679014 0
0.252492 0.0354726 0
0.365403 0.0617656 0
0.359637 0.0710541 0
0.214015 0.0171496 0
0.265104 0.0380247 0
0.364768 0.0565419 0
0.359516 0.0695892 0
0.219694 0.0213502 0
0.361779 0.0652742 0
0.207509 0.00911327 0
0.277355 0.0400852 0
0.201322 0.00535541 0
0.363301 0.0611794 0
0.359343 0.0675618 0
0.361514 0.0627664 0
0.364916 0.0576453 0
0.293858 0.0423638 0
0.350691 0.0518463 0
0.365944 0.0542617 0
0.359101 0.0648006 0
0.226574 0.0246168 0
0.308552 0.0438875 0
0.212381 0.0117897 0
0.361156 0.0594993 0
0.232274 0.0261506 0
0.196066 0.00117494 0
0.358765 0.0611372 0
0.324841 0.0447756 0
0.241298 0.0280157 0
0.356335 0.0640026 0
0.21549 0.0147515 0
0.364332 0.0526119 0
0.365322 0.0511017 0
0.360809 0.0564253 0
0.356283 0.0633126 0
0.356232 0.0626354 0
0.36234 0.0531811 0
0.35616 0.061685 0
0.258585 0.0310721 0
0.337569 0.0449736 0
0.361618 0.0483409 0
0.356088 0.0607557 0
0.358314 0.0564392 0
0.208946 0.0068085 0
0 0 0
0.355986 0.059467 0
0.360361 0.0525545 0
0.355885 0.0582148 0
0.363748 0.0480765 0
0.227284 0.0210121 0
0.123677 -0.00824736 0
0.348637 0.044052 0
0.285717 0.0348178 0
0.228794 0.0213863 0
0.355743 0.056507 0
0.230204 0.0216877 0
0.232416 0.0221252 0
0.355605 0.054862 0
0.359945 0.0489706 0
0.235162 0.0226688 0
0.216895 0.0123909 0
0.35774 0.0506592 0
0.355496 0.0427412 0
0.24022 0.0236446 0
0.355417 0.0526685 0
0.317693 0.0373557 0
0.246165 0.0246927 0
0.352508 0.055836 0
0.221871 0.0149049 0
0.361379 0.0442615 0
0.362478 0.0427635 0
0.355237 0.0505796 0
0.352426 0.0545741 0
0.256116 0.0262818 0
0.35946 0.0446224 0
0.214573 0.00761578 0
0.35231 0.0528696 0
0.359474 0.0404021 0
0.210254 0.00450799 0
0.266684 0.0276338 0
0.355002 0.0478698 0
0.197872 -0.00170478 0
0.352152 0.050588 0
0.227887 0.016739 0
0.35706 0.043874 0
0.281946 0.0291692 0
0.354784 0.0453242 0
0.229352 0.0169249 0
0.3436 0.0365808 0
0.359074 0.0406584 0
0.164882 -0.00851899 0
0.218467 0.00957875 0
0.360566 0.0379725 0
0.351939 0.0475969 0
0.23187 0.0171772 0
0.29642 0.0300712 0
0.354513 0.0421164 0
0.237574 0.0178411 0
0.348663 0.0483851 0
0.204642 -0.000349491 0
0.348633 0.047805 0
0.313551 0.0303727 0
0.351663 0.0437894 0
0.348604 0.047237 0
0.348565 0.0464577 0
0.211436 0.00212363 0
0.358593 0.0359182 0
0.348527 0.0456974 0
0.359749 0.0347103 0
0.354273 0.0391366 0
0.250115 0.0192335 0
0.348476 0.0446595 0
0.327592 0.0300474 0
0.356306 0.0362294 0
0.348427 0.0436523 0
0.355949 0.032408 0
0.228379 0.012639 0
0.228788 0.0126323 0
0.348359 0.0422932 0
0.351325 0.0391044 0
0.219882 0.00678573 0
0.229193 0.0126193 0
0.229824 0.0126054 0
0.348295 0.0409836 0
0.353979 0.035458 0
0.273176 0.0212371 0
0.230505 0.0125971 0
0.340381 0.0285895 0
0.358015 0.0315347 0
0.231803 0.012659 0
0.216634 0.00305578 0
0.34821 0.0392454 0
0.199347 -0.00461022 0
0.233393 0.0127726 0
0.348131 0.0375821 0
0.236457 0.0130743 0
0.223886 0.00738837 0
0.0677187 -0.00641278 0
0.353687 0.0319879 0
0.212474 -0.000263028 0
0.348588 0.0268632 0
0.344559 0.0402228 0
0.350926 0.033498 0
0.240425 0.013499 0
0.348025 0.0354158 0
0.304993 0.0225331 0
0.344517 0.0391665 0
0.124765 -0.00962943 0
0.247503 0.0142157 0
0.344459 0.0377802 0
0.355459 0.0275054 0
0.347926 0.0333472 0
0.356706 0.0262061 0
0.344379 0.0359569 0
0.221349 0.00345585 0
0.255888 0.0148903 0
0.228707 0.00783238 0
0.353329 0.0276966 0
0.353353 0.0240483 0
0.229306 0.00773396 0
0.347797 0.0306931 0
0.344275 0.0335783 0
0.230202 0.00757402 0
0.268955 0.0156308 0
0.35044 0.0267734 0
0.334172 0.0207915 0
0.231755 0.00736467 0
0.213374 -0.00275699 0
0.347661 0.0281308 0
0.282434 0.015841 0
0.352921 0.0235713 0
0.344141 0.0305173 0
0.354646 0.0211809 0
0.200569 -0.00753393 0
0.340254 0.0327817 0
0.235114 0.00719084 0
0.340247 0.0322922 0
0.340241 0.0318113 0
0.340234 0.0311717 0
0.347478 0.0248634 0
0.207002 -0.00611289 0
0.218431 -0.00201462 0
0.299631 0.0153739 0
0.340227 0.030544 0
0.222569 0.000136813 0
0.343971 0.0266211 0
0.340217 0.0297031 0
0.243222 0.00720744 0
0.340207 0.0288789 0
0.229018 0.00322989 0
0.229235 0.00315746 0
0.229463 0.00308787 0
0.352276 0.018497 0
0.35357 0.0173955 0
0.340193 0.0277757 0
0.347269 0.0216808 0
0.314697 0.014241 0
0.229796 0.00298072 0
0.230133 0.00287273 0
0.340178 0.0266946 0
0.214111 -0.00525378 0
0.349022 0.0153472 0
0.349715 0.0186271 0
0.230643 0.00272087 0
0.340157 0.025255 0
0.231144 0.00256132 0
0.34374 0.0216742 0
0.260717 0.00733902 0
0.231954 0.00235801 0
0.340131 0.0238416 0
0.329407 0.0118828 0
0.22597 -0.00106251 0
0.346963 0.0176584 0
0.23284 0.0021589 0
0 0 0
0.35151 0.0136402 0
0.340089 0.0219718 0
0.234558 0.0019713 0
0.201478 -0.0104738 0
0.335536 0.0246203 0
0.166457 -0.0131362 0
0.340039 0.0201305 0
0.223632 -0.00379947 0
0.23678 0.00183914 0
0.335526 0.0236645 0
0.339393 0.0093848 0
0.125438 -0.0111541 0
0.346611 0.0137506 0
0.335511 0.0224388 0
0.214713 -0.00787571 0
0.289657 0.00675938 0
0.343375 0.0154378 0
0.24108 0.00176951 0
0.339953 0.0177197 0
0.229582 -0.00193171 0
0.33549 0.0208409 0
0.229871 -0.0021139 0
0.230358 -0.00236874 0
0.246764 0.00174025 0
0.349831 0.00774216 0
0.339853 0.0153483 0
0.348531 0.00890418 0
0.335458 0.0187411 0
0.219776 -0.00771917 0
0.231121 -0.00273467 0
0.345473 0.00573165 0
0.346095 0.00892311 0
0.25641 0.00157924 0
0.335404 0.0159809 0
0.339701 0.0122846 0
0.232258 -0.00327921 0
0.32129 0.00348392 0
0.215138 -0.0105025 0
0.208391 -0.0119621 0
0.224359 -0.00771763 0
0.34276 0.00773753 0
0.267592 0.00102783 0
0.202135 -0.0134327 0
0.330705 0.0168154 0
0.234214 -0.0040618 0
0.339526 0.00928454 0
0.330707 0.0163296 0
0.33531 0.0123745 0
0.347268 0.00220749 0
0.330709 0.0158486 0
0.345503 0.00425922 0
0.330711 0.0152328 0
0.330712 0.0146226 0
0.330711 0.0138264 0
0.229942 -0.00695877 0
0.283212 -0.000350979 0
0.230097 -0.00705114 0
0.23025 -0.00714448 0
0.330709 0.0130372 0
0.230461 -0.0072854 0
0.238685 -0.00513508 0
0.339261 0.00549051 0
0.23067 -0.00742777 0
0.330702 0.0119967 0
0.230965 -0.00763785 0
0.335142 0.00772329 0
0.330692 0.0109658 0
0.23126 -0.00785033 0
0.231674 -0.00815748 0
0.215409 -0.0132847 0
0.298229 -0.00252436 0
0.330674 0.00960307 0
0.346005 -0.00228259 0
0.344598 -0.00137446 0
0.232087 -0.00846888 0
0.338956 0.00179283 0
0.330652 0.00825443 0
0.339707 -0.0037196 0
0.227381 -0.0106619 0
0.23267 -0.00890778 0
0.341717 -0.00150164 0
0.24975 -0.00672651 0
0.330616 0.006479 0
0.224827 -0.012267 0
0.233245 -0.00935698 0
0.202484 -0.0164016 0
0.334839 0.00184593 0
0.125703 -0.0126572 0
0.330572 0.00472667 0
0.314345 -0.00610937 0
0.22041 -0.0141776 0
0.234209 -0.0099302 0
0.338506 -0.00277711 0
0.325023 0.00776631 0
0.343534 -0.00677033 0
0.330503 0.002444 0
0.325025 0.00674214 0
0.2353 -0.0104994 0
0.215491 -0.0160715 0
0.325024 0.00547299 0
0.230256 -0.0126563 0
0.23049 -0.0128505 0
0.33042 0.000198059 0
0.326301 -0.00979354 0
0.272365 -0.00953324 0
0.325017 0.00386253 0
0.230842 -0.0131396 0
0.237496 -0.0111705 0
0.337989 -0.00721206 0
0.231357 -0.0135635 0
0.208814 -0.0179044 0
0.334309 -0.00540869 0
0.324999 0.00179036 0
0.330292 -0.0026827 0
0.240421 -0.0118389 0
0.232085 -0.014179 0
0.166586 -0.0179544 0
0.341206 -0.0131509 0
0.224861 -0.016798 0
0.324961 -0.000887883 0
0.34004 -0.0123044 0
0.202558 -0.0194035 0
0.33014 -0.00550775 0
0.334541 -0.0146567 0
0.233071 -0.0150702 0
0.246113 -0.0127679 0
0.215387 -0.0190447 0
0.337256 -0.0125677 0
0.324883 -0.00433657 0
0 0 0
0.329911 -0.00906736 0
0.303681 -0.0148839 0
0.319215 -0.00114478 0
0.234478 -0.0163403 0
0.253636 -0.0139725 0
0.319217 -0.00169197 0
0.319218 -0.0022353 0
0.0677096 -0.00766785 0
0.229977 -0.0183417 0
0.319219 -0.0028988 0
0.333411 -0.0141398 0
0.230104 -0.0184448 0
0.23023 -0.0185483 0
0.319218 -0.00355742 0
0.337581 -0.0190115 0
0.230402 -0.0187022 0
0.324735 -0.00873205 0
0.329643 -0.0125443 0
0.319217 -0.00438241 0
0.230574 -0.0188569 0
0.336424 -0.0177251 0
0.230814 -0.0190837 0
0.319213 -0.00520084 0
0.231052 -0.0193124 0
0.265498 -0.0161494 0
0.319206 -0.00624459 0
0.236869 -0.0181796 0
0.231384 -0.0196432 0
0.220072 -0.0214677 0
0.125504 -0.014354 0
0.319197 -0.00727897 0
0.215085 -0.0220206 0
0.231711 -0.0199784 0
0.202332 -0.0224215 0
0.319181 -0.00861075 0
0.232158 -0.0204562 0
0.329251 -0.0168393 0
0.224474 -0.0219777 0
0.22708 -0.0216275 0
0.31916 -0.00992874 0
0.232592 -0.020942 0
0.324464 -0.0142507 0
0.278619 -0.0192767 0
0.319127 -0.0116281 0
0.336522 -0.0243197 0
0.233169 -0.0216201 0
0.335188 -0.0238034 0
0.208294 -0.0239472 0
0.242192 -0.0210898 0
0.326543 -0.0242547 0
0.319085 -0.0133071 0
0.233727 -0.0223117 0
0.3288 -0.0210162 0
0.331924 -0.0243418 0
0.31902 -0.0154611 0
0.234455 -0.0232507 0
0.294301 -0.024209 0
0.214555 -0.0252089 0
0.312301 -0.0114738 0
0.323991 -0.0210467 0
0.229175 -0.0247295 0
0.318942 -0.0175848 0
0.312303 -0.0126519 0
0.229361 -0.0249373 0
0.235165 -0.0242079 0
0.229642 -0.025247 0
0.201843 -0.0254657 0
0.3123 -0.0140441 0
0.328148 -0.0260557 0
0.333752 -0.0296108 0
0.230049 -0.0257024 0
0.318823 -0.020282 0
0.31229 -0.0157352 0
0.236143 -0.0255088 0
0.255782 -0.026008 0
0.230615 -0.0263635 0
0.223577 -0.0271277 0
0.307572 -0.0295938 0
0.312268 -0.0178311 0
0.318683 -0.0229339 0
0.231385 -0.0273117 0
0.237165 -0.0268636 0
0.327402 -0.0309416 0
0.312223 -0.0204604 0
0.21382 -0.0283953 0
0.323188 -0.0292252 0
0.318472 -0.0262543 0
0.232406 -0.0286569 0
0.124843 -0.0159612 0
0.165271 -0.023095 0
0.330105 -0.0361559 0
0.239549 -0.0285871 0
0.218459 -0.029636 0
0.312139 -0.0237724 0
0.329593 -0.0359816 0
0.318515 -0.0363314 0
0.201069 -0.0285277 0
0.318228 -0.0295079 0
0.233721 -0.0305523 0
0.326367 -0.0367134 0
0.227739 -0.0310427 0
0.305118 -0.0216913 0
0.227836 -0.0311515 0
0.227932 -0.0312607 0
0.242983 -0.0304374 0
0.206862 -0.0300906 0
0.305119 -0.0223288 0
0.281382 -0.033937 0
0.228067 -0.031422 0
0.311988 -0.0279308 0
0.228201 -0.0315841 0
0.30512 -0.0229631 0
0.22839 -0.0318201 0
0.30512 -0.023701 0
0.228577 -0.0320576 0
0.31787 -0.0335115 0
0.305119 -0.0244348 0
0.228839 -0.0323989 0
0.305115 -0.0253123 0
0.229098 -0.0327433 0
0.212795 -0.0318156 0
0.30511 -0.0261844 0
0.222067 -0.0328925 0
0.323843 -0.0420579 0
0.229453 -0.0332316 0
0.321878 -0.038838 0
0.3051 -0.0272512 0
0.235281 -0.0332306 0
0.229803 -0.0337262 0
0.249849 -0.0331211 0
0.311723 -0.0331017 0
0.305088 -0.0283108 0
0.317457 -0.0374204 0
0.325191 -0.0422726 0
0.22437 -0.0338764 0
0 0 0
0.230269 -0.0344196 0
0.305068 -0.029628 0
0.200047 -0.0316093 0
0.230722 -0.0351263 0
0.305043 -0.0309348 0
0.305005 -0.0325737 0
0.231314 -0.0361071 0
0.258815 -0.0366774 0
0.316873 -0.0421404 0
0.304959 -0.0341974 0
0.311272 -0.0394378 0
0.231871 -0.0371177 0
0.237601 -0.0370668 0
0.324161 -0.0485799 0
0.211564 -0.0352276 0
0.30489 -0.0362371 0
0.323549 -0.0487169 0
0.307686 -0.0457234 0
0.123653 -0.0178046 0
0.232552 -0.0385053 0
0.225529 -0.0380005 0
0.304808 -0.0382541 0
0.225686 -0.0382197 0
0.316209 -0.0467311 0
0.225918 -0.0385458 0
0.29663 -0.0333526 0
0.271331 -0.042262 0
0.319818 -0.0498389 0
0.22625 -0.0390241 0
0.233134 -0.0399377 0
0.304686 -0.0407768 0
0.29663 -0.0347473 0
0.22001 -0.0385971 0
0.198774 -0.0346971 0
0.226711 -0.0397162 0
0.296624 -0.0363238 0
0.204556 -0.03632 0
0.310526 -0.0470593 0
0.21525 -0.0386688 0
0.304545 -0.0432655 0
0.227326 -0.040706 0
0.2338 -0.0418248 0
0.296608 -0.0381543 0
0.32163 -0.0547552 0
0.243341 -0.0432214 0
0.315294 -0.052148 0
0.296577 -0.0403303 0
0.228114 -0.0421067 0
0.209975 -0.0388836 0
0.284011 -0.0490776 0
0.304339 -0.0463486 0
0.234388 -0.0437467 0
0.162479 -0.0285095 0
0.296522 -0.0429635 0
0.304101 -0.0493818 0
0.229055 -0.0440702 0
0.0657588 -0.00895716 0
0.314267 -0.0574002 0
0.296424 -0.0461851 0
0.197276 -0.0377925 0
0.235117 -0.0462658 0
0.309329 -0.0560236 0
0.303762 -0.0530887 0
0.315454 -0.0607169 0
0.222671 -0.0448154 0
0.222746 -0.0449285 0
0.22282 -0.0450418 0
0.222927 -0.045209 0
0.296071 -0.0579283 0
0.223034 -0.0453769 0
0.230124 -0.0467869 0
0.316664 -0.0620025 0
0.223186 -0.0456212 0
0.29626 -0.0501411 0
0.223337 -0.0458669 0
0.223548 -0.0462191 0
0.217191 -0.0448263 0
0.208186 -0.0425149 0
0.287762 -0.044995 0
0.235915 -0.0488731 0
0.223756 -0.046574 0
0.121973 -0.0194364 0
0.303376 -0.056723 0
0.287763 -0.0457586 0
0.258564 -0.0533523 0
0.22404 -0.0470752 0
0.287762 -0.0465198 0
0.312848 -0.0634393 0
0.224315 -0.0475817 0
0.28776 -0.0473666 0
0.287755 -0.0482104 0
0.224682 -0.0482863 0
0.295985 -0.0549843 0
0.287748 -0.0491731 0
0.218817 -0.0471414 0
0.225032 -0.0490001 0
0.287738 -0.050132 0
0.231301 -0.0504781 0
0.302836 -0.0610894 0
0.201414 -0.0426069 0
0.287722 -0.0512526 0
0.195569 -0.0408746 0
0.303812 -0.0658742 0
0.238314 -0.0523038 0
0.225482 -0.0499779 0
0.287703 -0.0523681 0
0.307471 -0.0663089 0
0.225907 -0.0509697 0
0.287675 -0.0536982 0
0.311242 -0.0692928 0
0 0 0
0.287641 -0.055021 0
0.295538 -0.06086 0
0.302225 -0.0653535 0
0.226419 -0.0523106 0
0.287593 -0.0566218 0
0.20598 -0.0463814 0
0.242101 -0.0562088 0
0.287537 -0.058212 0
0.226899 -0.0536752 0
0.210197 -0.0484397 0
0.23242 -0.055473 0
0.287456 -0.0601523 0
0.218883 -0.0521255 0
0.219019 -0.0523514 0
0.219217 -0.0526868 0
0.213833 -0.0509259 0
0.301392 -0.0703806 0
0.227465 -0.0554978 0
0.307097 -0.0745047 0
0.219495 -0.0531772 0
0.287363 -0.0620771 0
0.282412 -0.0678766 0
0.193657 -0.0439407 0
0.294824 -0.0678868 0
0.21988 -0.053884 0
0.308906 -0.0759626 0
0.287232 -0.0644303 0
0.22795 -0.0573787 0
0.220394 -0.0548889 0
0.277395 -0.0581086 0
0.249431 -0.061817 0