# vtk DataFile Version 3.0
File generated from DClib
ASCII

DATASET UNSTRUCTURED_GRID
POINTS 1909 float
50 0 0 
48.75 0 0 
50 1.66667 0 
47.5 0 0 
50 3.33333 0 
46.25 0 0 
50 5 0 
45 0 0 
43.75 0 0 
50 6.66667 0 
43 2 0 
42.5 0 0 
50 8.33333 0 
43 4.66667 0 
41.25 0 0 
41.075 2 0 
50 10 0 
40 0 0 
43 7.33333 0 
39.15 2 0 
38.75 0 0 
43 10 0 
37.5 0 0 
37.225 2 0 
36.25 0 0 
36 4 0 
35.3 2 0 
36 5 0 
35 0 0 
35.325 4 0 
36 6 0 
36 7 0 
34.65 4 0 
36 8 0 
33.75 0 0 
33.975 4 0 
36 9 0 
33.375 2 0 
33.3 4 0 
36 10 0 
32.5 0 0 
32.625 4 0 
33 6 0 
31.95 4 0 
33 7.45455 0 
31.45 2 0 
31.25 0 0 
31.95 6 0 
33 8.79545 0 
31.275 4 0 
33 10 0 
30.6 4 0 
30 0 0 
30.9 6 0 
29.925 4 0 
29.525 2 0 
29.85 6 0 
29.25 4 0 
28.75 0 0 
30 8 0 
30 8.45455 0 
28.575 4 0 
29.625 8 0 
30 8.90909 0 
28.8 6 0 
30 9.25 0 
29.782 8.90909 0 
30 9.59091 0 
29.9487 9.59091 0 
29.25 8 0 
29.7462 9.25 0 
30 9.79545 0 
29.897 9.59091 0 
29.564 8.90909 0 
29.9547 9.79545 0 
29.3462 8.45455 0 
29.84 9.59091 0 
30 10 0 
29.8975 9.79545 0 
29.9882 10 0 
29.9902 10.0098 0 
29.7827 9.59091 0 
29.9765 10 0 
29.9804 10.0196 0 
29.9667 10.0098 0 
29.9591 10 0 
29.9686 10.0196 0 
29.9659 10.0341 0 
29.9569 10.0196 0 
29.9418 10 0 
29.9395 10.0196 0 
29.9515 10.0485 0 
29.932 10.0098 0 
29.9424 10.0341 0 
29.8241 9.79545 0 
29.7181 9.59091 0 
29.9166 10 0 
29.9397 10.0485 0 
29.9222 10.0196 0 
29.9279 10.0485 0 
29.9305 10.0695 0 
29.8914 10 0 
29.9077 10.0341 0 
27.9 4 0 
29.897 10.0196 0 
29.9106 10.0485 0 
29.8817 10.0098 0 
29.907 10.0695 0 
29.8933 10.0485 0 
29.9095 10.0905 0 
29.8719 10.0196 0 
27.6 2 0 
29.8556 10 0 
29.8978 10.0905 0 
29.6531 9.59091 0 
29.3437 8.90909 0 
27.5 0 0 
29.8681 10.0485 0 
29.886 10.0905 0 
29.8574 10.0341 0 
29.4839 9.25 0 
29.8723 10.0695 0 
29.7289 9.79545 0 
29.836 10.0196 0 
29.8687 10.0905 0 
29.8197 10 0 
29.8797 10.1203 0 
29.843 10.0485 0 
29.8513 10.0905 0 
29.81 10.0098 0 
29.8561 10.1203 0 
29.8002 10.0196 0 
29.8221 10.0695 0 
29.8072 10.0485 0 
29.8262 10.0905 0 
29.5782 9.59091 0 
29.8498 10.1502 0 
29.7695 10 0 
29.7858 10.0341 0 
29.838 10.1502 0 
29.8215 10.1203 0 
29.8011 10.0905 0 
29.8262 10.1502 0 
29.7714 10.0485 0 
28.875 8 0 
29.75 10.0196 0 
29.8089 10.1502 0 
29.7654 10.0905 0 
29.7193 10 0 
29.7916 10.1502 0 
29.7505 10.0695 0 
29.8079 10.1921 0 
29.7713 10.1203 0 
29.7096 10.0098 0 
29.6047 9.79545 0 
29.503 9.59091 0 
29.7213 10.0485 0 
29.7665 10.1502 0 
29.6999 10.0196 0 
29.7844 10.1921 0 
29.7296 10.0905 0 
29.6856 10.0341 0 
29.7414 10.1502 0 
29.7497 10.1921 0 
29.6503 10 0 
29.7661 10.2339 0 
29.6712 10.0485 0 
29.6999 10.1203 0 
29.7543 10.2339 0 
29.6796 10.0905 0 
29.7057 10.1502 0 
29.7425 10.2339 0 
29.1235 8.90909 0 
29.6309 10.0196 0 
29.6504 10.0695 0 
29.4146 9.59091 0 
29.7252 10.2339 0 
29.6996 10.1921 0 
29.6701 10.1502 0 
29.7079 10.2339 0 
29.6296 10.0905 0 
29.5813 10 0 
29.6023 10.0485 0 
29.5716 10.0098 0 
29.6828 10.2339 0 
29.7086 10.2914 0 
29.2101 9.25 0 
29.562 10.0196 0 
29.6201 10.1502 0 
29.6578 10.2339 0 
29.4428 9.79545 0 
29.5999 10.1203 0 
29.6849 10.2914 0 
29.6283 10.1921 0 
29.5477 10.0341 0 
29.3259 9.59091 0 
29.5608 10.0905 0 
29.5335 10.0485 0 
29.6221 10.2339 0 
29.6503 10.2914 0 
29.5702 10.1502 0 
29.4881 10 0 
29.5128 10.0695 0 
29.6511 10.3489 0 
29.5866 10.2339 0 
29.6392 10.3489 0 
29.4689 10.0196 0 
29.6002 10.2914 0 
29.6273 10.3489 0 
29.4921 10.0905 0 
29.61 10.3489 0 
29.5286 10.1921 0 
29.5016 10.1502 0 
29.5368 10.2339 0 
29.5926 10.3489 0 
29.4405 10.0485 0 
29.2199 9.59091 0 
29.4626 10.1203 0 
29.3949 10 0 
28.9 8.90909 0 
29.5676 10.3489 0 
29.5291 10.2914 0 
29.3853 10.0098 0 
28.6923 8.45455 0 
29.487 10.2339 0 
29.5426 10.3489 0 
29.3758 10.0196 0 
29.5734 10.4266 0 
29.4331 10.1502 0 
29.3993 10.0905 0 
28.5 8 0 
29.3617 10.0341 0 
29.5496 10.4266 0 
29.5071 10.3489 0 
29.2327 9.79545 0 
29.3475 10.0485 0 
29.1136 9.59091 0 
29.4187 10.2339 0 
29.5148 10.4266 0 
29.4716 10.3489 0 
29.3918 10.1921 0 
29.3271 10.0695 0 
29.4298 10.2914 0 
29.2714 10 0 
29.3406 10.1502 0 
28.9208 9.25 0 
29.3066 10.0905 0 
29.4648 10.4266 0 
29.422 10.3489 0 
29.4958 10.5042 0 
29.2524 10.0196 0 
27.75 6 0 
29.3504 10.2339 0 
29.4837 10.5042 0 
29.4718 10.5042 0 
29.2774 10.1203 0 
29.4543 10.5042 0 
29.3724 10.3489 0 
29.2244 10.0485 0 
29.4369 10.5042 0 
29.3938 10.4266 0 
28.9853 9.59091 0 
29.2481 10.1502 0 
28.6766 8.90909 0 
29.4119 10.5042 0 
29.2934 10.2914 0 
27.225 4 0 
29.148 10 0 
29.2582 10.2339 0 
29.1837 10.0905 0 
29.3869 10.5042 0 
29.1385 10.0098 0 
29.3044 10.3489 0 
29.1291 10.0196 0 
29.2072 10.1921 0 
29.3514 10.5042 0 
29.1152 10.0341 0 
29.3929 10.6071 0 
29.2949 10.4266 0 
29.1013 10.0485 0 
29.3686 10.6071 0 
29.316 10.5042 0 
29.2364 10.3489 0 
28.9623 9.79545 0 
29.1257 10.1502 0 
29.1662 10.2339 0 
29.0811 10.0695 0 
28.8566 9.59091 0 
29.3336 10.6071 0 
29.2666 10.5042 0 
29.0609 10.0905 0 
28.9875 10 0 
29.2835 10.6071 0 
29.1448 10.3489 0 
29.0321 10.1203 0 
29.2173 10.5042 0 
29.1098 10.2914 0 
28.125 8 0 
28.9688 10.0196 0 
29.1594 10.4266 0 
28.611 9.25 0 
29.29 10.71 0 
28.4486 8.90909 0 
29.0443 10.2339 0 
29.0033 10.1502 0 
29.2777 10.71 0 
28.9413 10.0485 0 
29.2128 10.6071 0 
29.2655 10.71 0 
29.1497 10.5042 0 
29.2478 10.71 0 
28.7003 9.59091 0 
29.0533 10.3489 0 
29.2303 10.71 0 
28.9629 10.1921 0 
28.9013 10.0905 0 
29.2051 10.71 0 
29.0822 10.5042 0 
29.1801 10.71 0 
28.827 10 0 
29.1144 10.6071 0 
28.8177 10.0098 0 
28.9225 10.2339 0 
28.8085 10.0196 0 
29.1447 10.71 0 
28.7949 10.0341 0 
28.8443 10.1502 0 
28.977 10.4266 0 
28.9322 10.3489 0 
29.1094 10.71 0 
28.7813 10.0485 0 
28.9912 10.5042 0 
29.1562 10.8438 0 
28.5436 9.59091 0 
28.7615 10.0695 0 
28.8669 10.2914 0 
29.1313 10.8438 0 
28.6184 9.79545 0 
29.0602 10.71 0 
28.2207 8.90909 0 
28.7418 10.0905 0 
28.0378 8.45455 0 
28.9798 10.6071 0 
29.0958 10.8438 0 
29.0112 10.71 0 
28.9005 10.5042 0 
28.7136 10.1203 0 
28.7644 10.2339 0 
28.8113 10.3489 0 
29.0454 10.8438 0 
28.6223 10 0 
28.6854 10.1502 0 
28.2746 9.25 0 
28.9441 10.71 0 
28.6042 10.0196 0 
27.75 8 0 
28.9747 10.8438 0 
28.6459 10.1921 0 
28.5773 10.0485 0 
29.0225 10.9775 0 
28.3532 9.59091 0 
28.7804 10.5042 0 
28.736 10.4266 0 
28.8772 10.71 0 
29.0097 10.9775 0 
28.9971 10.9775 0 
28.799 10.6071 0 
28.9791 10.9775 0 
28.5384 10.0905 0 
28.6064 10.2339 0 
28.6543 10.3489 0 
28.9611 10.9775 0 
28.8769 10.8438 0 
27.9867 8.90909 0 
26.25 0 0 
28.9358 10.9775 0 
28.7871 10.71 0 
28.9106 10.9775 0 
28.6607 10.5042 0 
28.4177 10 0 
26.55 4 0 
28.552 10.2914 0 
28.483 10.1502 0 
28.4087 10.0098 0 
28.8751 10.9775 0 
28.3998 10.0196 0 
28.3866 10.0341 0 
28.8399 10.9775 0 
28.6974 10.71 0 
28.3735 10.0485 0 
28.1625 9.59091 0 
28.7436 10.8438 0 
28.4976 10.3489 0 
28.3543 10.0695 0 
28.791 10.9775 0 
28.4052 10.2339 0 
28.3352 10.0905 0 
28.8519 11.1481 0 
28.1869 9.79545 0 
28.5607 10.6071 0 
28.5053 10.5042 0 
28.7423 10.9775 0 
28.8258 11.1481 0 
28.308 10.1203 0 
28.5787 10.71 0 
27.904 9.25 0 
28.7893 11.1481 0 
28.424 10.4266 0 
27.7528 8.90909 0 
28.2807 10.1502 0 
28.6758 10.9775 0 
27.375 8 0 
28.7383 11.1481 0 
28.1619 10 0 
28.5649 10.8438 0 
28.2425 10.1921 0 
28.6096 10.9775 0 
28.1444 10.0196 0 
28.298 10.3489 0 
28.4605 10.71 0 
26.7 6 0 
27.9315 9.59091 0 
28.3503 10.5042 0 
28.6676 11.1481 0 
28.1187 10.0485 0 
28.2042 10.2339 0 
28.5207 10.9775 0 
28.0813 10.0905 0 
28.6814 11.3186 0 
27.3818 8.45455 0 
28.6679 11.3186 0 
28.1516 10.2914 0 
28.5703 11.1481 0 
28.6544 11.3186 0 
28.6358 11.3186 0 
27.5109 8.90909 0 
28.3072 10.71 0 
28.6173 11.3186 0 
28.2524 10.6071 0 
28.4322 10.9775 0 
28.028 10.1502 0 
28.5915 11.3186 0 
28.0989 10.3489 0 
28.33 10.8438 0 
28.5658 11.3186 0 
28.153 10.5042 0 
27.9061 10 0 
27.8975 10.0098 0 
28.5303 11.3186 0 
28.4384 11.1481 0 
27.7002 9.59091 0 
27.889 10.0196 0 
27.8765 10.0341 0 
28.4949 11.3186 0 
28.3154 10.9775 0 
27.9532 10.2339 0 
27.8639 10.0485 0 
28.0276 10.4266 0 
28.1544 10.71 0 
27.8457 10.0695 0 
27.4909 9.25 0 
28.4463 11.3186 0 
27 8 0 
27.8275 10.0905 0 
28.3979 11.3186 0 
27.8015 10.1203 0 
27.6542 9.79545 0 
25.675 2 0 
28.1991 10.9775 0 
27.2691 8.90909 0 
27.9563 10.5042 0 
28.4682 11.5318 0 
28.2625 11.1481 0 
27.7755 10.1502 0 
28.3322 11.3186 0 
27.8502 10.3489 0 
28.4401 11.5318 0 
25.875 4 0 
27.7391 10.1921 0 
28.4019 11.5318 0 
28.0268 10.8438 0 
28.2668 11.3186 0 
27.9602 10.71 0 
28.3498 11.5318 0 
27.4223 9.59091 0 
27.7026 10.2339 0 
27.5927 10 0 
28.0486 10.9775 0 
27.8616 10.6071 0 
27.5762 10.0196 0 
28.1794 11.3186 0 
28.2786 11.5318 0 
27.5519 10.0485 0 
27.6524 10.2914 0 
28.0319 11.1481 0 
27.7108 10.5042 0 
27.5167 10.0905 0 
27.0169 8.90909 0 
28.0924 11.3186 0 
27.6021 10.3489 0 
27.8988 10.9775 0 
28.1818 11.5318 0 
27.7667 10.71 0 
26.625 8 0 
28.255 11.745 0 
27.4664 10.1502 0 
28.2402 11.745 0 
28.2256 11.745 0 
28.2059 11.745 0 
27.978 11.3186 0 
26.7234 8.45455 0 
27.0259 9.25 0 
27.5342 10.4266 0 
28.1863 11.745 0 
27.1442 9.59091 0 
28.0516 11.5318 0 
28.1598 11.745 0 
27.3959 10.2339 0 
28.1334 11.745 0 
27.2793 10 0 
27.2714 10.0098 0 
27.2635 10.0196 0 
27.7086 10.9775 0 
27.6431 10.8438 0 
28.0975 11.745 0 
27.8643 11.3186 0 
27.4661 10.5042 0 
27.2518 10.0341 0 
27.2401 10.0485 0 
28.0617 11.745 0 
26.7648 8.90909 0 
27.5255 10.71 0 
27.7353 11.1481 0 
27.2231 10.0695 0 
28.0133 11.745 0 
27.2061 10.0905 0 
27.8791 11.5318 0 
27.2986 10.3489 0 
27.1818 10.1203 0 
27.9651 11.745 0 
27.3758 10.6071 0 
27.0077 9.79545 0 
27.7174 11.3186 0 
27.1576 10.1502 0 
25 0 0 
27.5193 10.9775 0 
27.9003 11.745 0 
27.1236 10.1921 0 
26.25 8 0 
27.9939 12.0061 0 
25.65 6 0 
27.8359 11.745 0 
26.8136 9.59091 0 
27.0896 10.2339 0 
27.9626 12.0061 0 
27.2853 10.71 0 
25.2 4 0 
27.5713 11.3186 0 
27.9218 12.0061 0 
26.4998 8.90909 0 
27.167 10.5042 0 
27.6541 11.5318 0 
27.0427 10.2914 0 
27.7503 11.745 0 
26.9033 10 0 
27.8677 12.0061 0 
26.8882 10.0196 0 
26.8659 10.0485 0 
26.9958 10.3489 0 
27.2836 10.9775 0 
27.6652 11.745 0 
27.3609 11.1481 0 
27.7955 12.0061 0 
26.499 9.25 0 
[...]
POINT_DATA 1909
SCALARS phi float 1
LOOKUP_TABLE default
VECTORS Displacement float
0 0 0
0 0 0
0 -0.000868588 0
0 0 0
0 -0.00118467 0
0 0 0
0 -0.000995544 0
0 0 0
0 0 0
0 -0.000353333 0
0.00256693 -0.000782145 0
0 0 0
0 0.00070886 0
0.00501898 -0.000467131 0
0 0 0
0.00345164 -0.000771485 0
0 0.00213319 0
0 0 0
0.00671913 0.00114408 0
0.00441806 -0.000785173 0
0 0 0
0.00771478 0.0036581 0
0 0 0
0.0054452 -0.000841717 0
0 0 0
0.0103746 -0.000574282 0
0.00647552 -0.000940736 0
0.0123245 2.18006e-05 0
0 0 0
0.0111148 -0.000628273 0
0.0137928 0.000848397 0
0.0148349 0.00185122 0
0.0118353 -0.000694265 0
0.0155506 0.00294647 0
0 0 0
0.0125477 -0.000798872 0
0.0159987 0.00410105 0
0.0074455 -0.00107516 0
0.0132351 -0.000917404 0
0.0162632 0.00526247 0
0 0 0
0.0138847 -0.00105866 0
0.0179194 0.000319589 0
0.0144987 -0.00121304 0
0.0198306 0.00194161 0
0.00829926 -0.00123753 0
0 0 0
0.0193173 -0.000273624 0
0.020729 0.00390165 0
0.0150641 -0.00138267 0
0.0207312 0.00612724 0
0.0155837 -0.00156403 0
0 0 0
0.0204767 -0.000869179 0
0.0160516 -0.00175637 0
0.00899204 -0.00142308 0
0.0214476 -0.00149765 0
0.0164667 -0.00196019 0
0 0 0
0.0251456 -0.00019037 0
0.0258377 0.000275439 0
0.0168291 -0.00217197 0
0.0256049 -0.00060966 0
0.0264987 0.00081931 0
0.0222357 -0.00216205 0
0.0268866 0.00133932 0
0.0268454 0.000462532 0
0.0271713 0.00196232 0
0.0272839 0.00178326 0
0.0260033 -0.00102846 0
0.0273172 0.000804308 0
0.0272603 0.00267308 0
0.0273916 0.00162871 0
0.0271489 0.000105722 0
0.0273755 0.00242594 0
0.0266833 -0.00059835 0
0.0275024 0.00147425 0
0.0271828 0.00372925 0
0.0275227 0.00217376 0
0.027229 0.00368381 0
0.0307725 0.00567691 0
0.0276101 0.00133083 0
0.0272774 0.00363071 0
0.0329108 0.00661831 0
0.0304307 0.00532831 0
0.027344 0.00352653 0
0.0325817 0.00635436 0
0.0331923 0.00646742 0
0.0322489 0.00608398 0
0.0274106 0.00342423 0
0.0317906 0.0057312 0
0.0331678 0.00628425 0
0.030029 0.00483654 0
0.0328663 0.00607911 0
0.0277085 0.00190855 0
0.0277236 0.00117919 0
0.0275004 0.00325636 0
0.0331328 0.00614244 0
0.0314131 0.00542131 0
0.0330927 0.00601591 0
0.0332004 0.00611813 0
0.027587 0.00309537 0
0.0322892 0.00560392 0
0.017134 -0.00239668 0
0.0310009 0.00501317 0
0.0329862 0.00584735 0
0.0296778 0.00422864 0
0.0331445 0.00588055 0
0.0328173 0.00565715 0
0.0331693 0.00594329 0
0.0306891 0.00466701 0
0.00948657 -0.00163012 0
0.0277044 0.00287242 0
0.0331455 0.00582827 0
0.0278351 0.00103789 0
0.0274284 -0.0002382 0
0 0 0
0.0325391 0.00535205 0
0.0331212 0.00571406 0
0.0315721 0.00492275 0
0.0276939 0.000314117 0
0.0330188 0.00553059 0
0.0279335 0.00161423 0
0.0303705 0.00422831 0
0.0330825 0.00554231 0
0.0278154 0.00266481 0
0.033144 0.00571297 0
0.0322234 0.00504515 0
0.0330481 0.00537594 0
0.0294273 0.00354158 0
0.033098 0.0054836 0
0.0301506 0.00386253 0
0.0326755 0.00501098 0
0.0318058 0.00461283 0
0.0329774 0.00514643 0
0.027961 0.000885826 0
0.0331048 0.00547711 0
0.0279639 0.0024055 0
0.0308493 0.00408735 0
0.0330826 0.00536476 0
0.0330339 0.00516208 0
0.0328834 0.00491929 0
0.0330611 0.00525482 0
0.0314346 0.00422449 0
0.0263801 -0.00144821 0
0.0299385 0.00341732 0
0.0330296 0.00509733 0
0.0327019 0.004606 0
0.0281038 0.002169 0
0.0329982 0.00494558 0
0.0320482 0.00429837 0
0.0330591 0.00516115 0
0.0329387 0.00473132 0
0.0292942 0.00281566 0
0.0281995 0.00128051 0
0.0280844 0.000739545 0
0.0310196 0.00372518 0
0.0329554 0.00473261 0
0.0298075 0.00304538 0
0.0330183 0.00494971 0
0.0324606 0.00429061 0
0.0302755 0.00319582 0
0.0329172 0.00453235 0
0.0329617 0.00465641 0
0.0282899 0.0018949 0
0.0330132 0.00485771 0
0.0307052 0.00330515 0
0.0327134 0.00416544 0
0.032994 0.00475613 0
0.0321052 0.00386175 0
0.0328581 0.00426265 0
0.0329753 0.00465728 0
0.0276841 -0.000567537 0
0.0296905 0.00260855 0
0.0312748 0.00341503 0
0.0282238 0.000574301 0
0.0329488 0.00451636 0
0.0328871 0.00426864 0
0.0327937 0.00400975 0
0.0329236 0.00438068 0
0.0317467 0.00346403 0
0.028465 0.00164788 0
0.0304005 0.00280512 0
0.0292744 0.00208246 0
0.0328884 0.00419324 0
0.0329663 0.00446806 0
0.0280576 -0.000141393 0
0.0296312 0.00223847 0
0.0326636 0.00368096 0
0.0328546 0.00401496 0
0.0285109 0.000905985 0
0.0322038 0.00344094 0
0.0329312 0.0042822 0
0.0327963 0.00378077 0
0.0299295 0.00232778 0
0.0283594 0.000412691 0
0.0313241 0.00296258 0
0.0302085 0.00239736 0
0.0328094 0.0037752 0
0.0328832 0.00402612 0
0.0324808 0.00336253 0
0.0286997 0.00138425 0
0.0306114 0.00248165 0
0.0329291 0.0041052 0
0.0327691 0.00355343 0
0.0329129 0.0040178 0
0.0295884 0.00182119 0
0.0328207 0.00368635 0
0.0328972 0.00393275 0
0.0309933 0.00253972 0
0.0328747 0.00381141 0
0.0326356 0.00319222 0
0.0321891 0.00295464 0
0.0327165 0.00326624 0
0.032853 0.00369455 0
0.0300543 0.00193823 0
0.0285125 0.000224785 0
0.0314757 0.00257884 0
0.0289172 0.00114218 0
0.0279261 -0.000890059 0
0.0328231 0.00353278 0
0.0327443 0.00325987 0
0.029361 0.00136818 0
0.0273514 -0.00143047 0
0.0326691 0.00300723 0
0.0327952 0.00337965 0
0.0295861 0.00145613 0
0.0328937 0.0036552 0
0.0318689 0.00257058 0
0.0306777 0.00203693 0
0.0267094 -0.00187426 0
0.02979 0.00150785 0
0.0328662 0.00349832 0
0.0327589 0.00317539 0
0.0288664 0.000483027 0
0.0299736 0.00154462 0
0.0286608 3.95428e-05 0
0.0325748 0.00268098 0
0.0328286 0.00328346 0
0.0327257 0.00298537 0
0.0322324 0.0024895 0
0.03023 0.00158593 0
0.0326613 0.00275569 0
0.0291836 0.000861863 0
0.0314823 0.00208313 0
0.0284116 -0.000597174 0
0.030481 0.00161671 0
0.0327794 0.00300008 0
0.0326838 0.0027388 0
0.0328636 0.00324149 0
0.0296089 0.00103729 0
0.0228362 -0.00286011 0
0.0324351 0.00236556 0
0.0328518 0.00316982 0
0.0328403 0.00310031 0
0.0308336 0.00164494 0
0.0328243 0.00300146 0
0.0326461 0.00250963 0
0.0299289 0.00109668 0
0.0328091 0.00290643 0
0.0327175 0.00264023 0
0.0288314 -0.000179312 0
0.0311702 0.00165238 0
0.0281534 -0.00120761 0
0.0327882 0.00277454 0
0.0325386 0.00215517 0
0.017385 -0.00262651 0
0.0294224 0.00059159 0
0.0321954 0.00195686 0
0.0303308 0.00112993 0
0.0327685 0.00264853 0
0.0295588 0.000638718 0
0.0325983 0.00221153 0
0.0296779 0.000671105 0
0.031581 0.00162469 0
0.0327416 0.00247725 0
0.0298051 0.000688145 0
0.0328577 0.0027556 0
0.0326413 0.00219045 0
0.0299272 0.000699507 0
0.0328372 0.0026281 0
0.0327159 0.00231301 0
0.0325552 0.00193174 0
0.029264 -1.82908e-05 0
0.0308804 0.00113187 0
0.0319091 0.00155588 0
0.0300973 0.000708909 0
0.0289962 -0.000396499 0
0.0328087 0.00245247 0
0.0326805 0.00209304 0
0.0302589 0.000710801 0
0.0296886 0.000260767 0
0.03277 0.00221428 0
0.032471 0.00157131 0
0.0304853 0.00070635 0
0.0326453 0.00188038 0
0.0321984 0.00140642 0
0.0270079 -0.00230058 0
0.0298071 0.000265744 0
0.0325494 0.00163079 0
0.0287569 -0.00107379 0
0.03285 0.00230741 0
0.0283697 -0.00152936 0
0.0315648 0.00105593 0
0.0307072 0.000694631 0
0.0328422 0.00224837 0
0.0299875 0.000266219 0
0.0327185 0.00189538 0
0.0328345 0.00219022 0
0.0325972 0.00160074 0
0.0328234 0.00210761 0
0.0291851 -0.000657 0
0.0323481 0.00122529 0
0.0328123 0.0020261 0
0.031011 0.00066652 0
0.0302472 0.00025517 0
0.0327961 0.00191158 0
0.0325495 0.00133426 0
0.0327796 0.0017985 0
0.0299164 -6.4375e-05 0
0.0326499 0.00147666 0
0.0299561 -7.26735e-05 0
0.0313003 0.000624567 0
0.0299955 -8.11478e-05 0
0.0327556 0.00164197 0
0.0300536 -9.41963e-05 0
0.0306044 0.00021958 0
0.0324266 0.000962632 0
0.0321447 0.000808075 0
0.0327311 0.0014886 0
0.0301124 -0.000107766 0
0.032493 0.00100054 0
0.0328442 0.00176104 0
0.0293651 -0.000917358 0
0.0302122 -0.000120618 0
0.0316421 0.000538715 0
0.0328286 0.00164654 0
0.0296907 -0.000629403 0
0.0326968 0.00128191 0
0.0285708 -0.0018502 0
0.0303145 -0.00013368 0
0.0278868 -0.00226415 0
0.0325635 0.000956575 0
0.0328067 0.00148606 0
0.0326633 0.00108485 0
0.0324505 0.000705206 0
0.0304583 -0.000155329 0
0.0310875 0.000142601 0
0.0319174 0.000427263 0
0.0327764 0.00126488 0
0.0301571 -0.000452911 0
0.0306036 -0.000178272 0
0.0290932 -0.00158732 0
0.0326213 0.000832296 0
0.030225 -0.000472521 0
0.0272622 -0.00273249 0
0.0327357 0.000971152 0
0.0308031 -0.000217075 0
0.0303258 -0.000502914 0
0.0328569 0.00123586 0
0.0295686 -0.00123249 0
0.0323854 0.00036113 0
0.0321673 0.000247175 0
0.0325862 0.000604599 0
0.032849 0.00117842 0
0.032841 0.00112199 0
0.0324785 0.000384418 0
0.0328296 0.0010427 0
0.0304778 -0.000547636 0
0.0310002 -0.000260489 0
0.0316712 -1.69454e-05 0
0.0328185 0.000965593 0
0.0326855 0.000605594 0
0.0287611 -0.00217991 0
0 0 0
0.0328028 0.00085888 0
0.0325482 0.000330307 0
0.0327881 0.000756925 0
0.0323089 5.27609e-05 0
0.0303603 -0.00084193 0
0.0175747 -0.00287253 0
0.0312615 -0.000330655 0
0.0307002 -0.000615142 0
0.0303925 -0.000852516 0
0.0327687 0.000619502 0
0.0304247 -0.000863275 0
0.0304712 -0.00087937 0
0.0327516 0.000491574 0
0.0325208 8.91356e-05 0
0.0305174 -0.000895754 0
0.0297581 -0.00154986 0
0.0326334 0.000189509 0
0.0315105 -0.000411102 0
0.0305842 -0.000919786 0
0.0327312 0.000325584 0
0.0310099 -0.00071934 0
0.0306509 -0.0009444 0
0.0328556 0.00058769 0
0.0301298 -0.00138327 0
0.0324089 -0.000210495 0
0.0321892 -0.000319679 0
0.0327151 0.000175243 0
0.0328453 0.000484584 0
0.0307455 -0.000980583 0
0.0324962 -0.000199772 0
0.0294153 -0.00215476 0
0.0328322 0.000349069 0
0.0318056 -0.000538072 0
0.0289344 -0.00251116 0
0.0308399 -0.00101802 0
0.0326995 -1.18643e-05 0
0.0274824 -0.00316591 0
0.0328163 0.000175156 0
0.0305782 -0.00130965 0
0.0325929 -0.0002654 0
0.0309717 -0.00107305 0
0.0326874 -0.000183557 0
0.0306345 -0.00133175 0
0.0314242 -0.000881457 0
0.0324744 -0.000470914 0
0.0232436 -0.00359228 0
0.029965 -0.00193593 0
0.0320483 -0.000686191 0
0.0327994 -3.99956e-05 0
0.030718 -0.00136528 0
0.031101 -0.00113102 0
0.0326776 -0.000396163 0
0.0308386 -0.00141592 0
0.0328538 9.33457e-06 0
0.028309 -0.00310384 0
0.032851 -3.36573e-05 0
0.0312736 -0.00121568 0
0.0327857 -0.000297388 0
0.0328486 -7.49809e-05 0
0.0328461 -0.000130595 0
0.0290949 -0.00285577 0
0.0324438 -0.000810035 0
0.032844 -0.000183943 0
0.0322747 -0.000906416 0
0.0326695 -0.000600188 0
0.031008 -0.00149229 0
0.0328428 -0.000254795 0
0.0314403 -0.00130531 0
0.0325618 -0.000797863 0
0.0328417 -0.000322782 0
0.031919 -0.00114163 0
0.03077 -0.0017818 0
0.030796 -0.00179349 0
0.032843 -0.000411677 0
0.0327774 -0.000609922 0
0.0301487 -0.00232679 0
0.030822 -0.0018053 0
0.0308599 -0.00182292 0
0.0328443 -0.000497299 0
0.0326623 -0.000859375 0
0.0312374 -0.00160803 0
0.0308977 -0.0018408 0
0.0316584 -0.00143161 0
0.0324097 -0.00114241 0
0.0309522 -0.00186718 0
0.029713 -0.00279476 0
0.0328472 -0.000610522 0
0.0276618 -0.00360451 0
0.0310062 -0.00189417 0
0.0328501 -0.000721169 0
0.0310826 -0.00193367 0
0.0305534 -0.00232421 0
0.00974748 -0.00185739 0
0.0326556 -0.00111368 0
0.029236 -0.00320351 0
0.0318662 -0.00156432 0
0.0329257 -0.000560367 0
0.032774 -0.00100217 0
0.0311578 -0.00197445 0
0.0328532 -0.000867535 0
0.0315351 -0.00178389 0
0.0329254 -0.000629912 0
0.017708 -0.00311958 0
0.0312613 -0.00203368 0
0.0329254 -0.000720622 0
0.0325267 -0.00145504 0
0.0328561 -0.00101219 0
0.0323528 -0.00155729 0
0.0329262 -0.000840467 0
0.0303381 -0.00280077 0
0.0313623 -0.00209534 0
0.0309695 -0.00236786 0
0.0326476 -0.00143869 0
0.0321044 -0.00175343 0
0.0310155 -0.00239336 0
0.0328592 -0.00120362 0
0.0329285 -0.00100007 0
0.0310826 -0.00243188 0
0.0314968 -0.00218422 0
0.0327721 -0.00150328 0
0.0318969 -0.0020502 0
0.0311782 -0.00248966 0
0.0293616 -0.00356902 0
0.0328617 -0.00139321 0
0.0316254 -0.0022778 0
0.0326399 -0.00175646 0
0.0329325 -0.00121393 0
0.0322999 -0.00196005 0
0.0278084 -0.00404908 0
0.0329578 -0.00106511 0
0.0313107 -0.00257592 0
0.0329587 -0.00109748 0
0.0329595 -0.00112964 0
0.0329608 -0.00117283 0
0.0328645 -0.00164129 0
0.0286108 -0.00396253 0
0.029968 -0.00352752 0
0.0317898 -0.00241115 0
0.032962 -0.00121585 0
0.0304917 -0.00328098 0
0.0329382 -0.0015 0
0.0329637 -0.00127417 0
0.0314884 -0.00270441 0
0.0329655 -0.00133238 0
0.0311272 -0.00296346 0
0.0311475 -0.00297723 0
0.0311677 -0.00299111 0
0.0326262 -0.00215253 0
0.0324761 -0.00225163 0
0.0329677 -0.00141139 0
0.0328661 -0.00188659 0
0.0319421 -0.00255291 0
0.0311973 -0.00301179 0
0.0312267 -0.00303271 0
0.0329699 -0.00149037 0
0.0294651 -0.00393841 0
0.0322796 -0.00245749 0
0.0327647 -0.0021338 0
0.0312689 -0.00306347 0
0.0329726 -0.00159734 0
0.0313107 -0.00309474 0
0.0329442 -0.00187812 0
0.0317154 -0.00289557 0
0.0313693 -0.00314017 0
0.0329753 -0.00170412 0
0.0321208 -0.00275241 0
0.0308964 -0.00349832 0
0.0328655 -0.00220155 0
0.0314268 -0.00318663 0
0 0 0
0.0326089 -0.00254442 0
0.0329784 -0.00184785 0
0.0315055 -0.00325335 0
0.0279156 -0.00449875 0
0.0329613 -0.00165212 0
0.0234516 -0.00435983 0
0.0329812 -0.00199109 0
0.0306298 -0.00385768 0
0.0315818 -0.00332206 0
0.0329625 -0.00172221 0
0.0322736 -0.00296311 0
0.0177762 -0.00338764 0
0.032861 -0.00251399 0
0.032964 -0.00181375 0
0.0295497 -0.00432991 0
0.0319849 -0.00317883 0
0.0329461 -0.00236996 0
0.0316825 -0.00341969 0
0.0329839 -0.00218157 0
0.0312618 -0.00368894 0
0.0329659 -0.00193555 0
0.0312968 -0.00371854 0
0.0313476 -0.00376288 0
0.0317784 -0.00352081 0
0.0325863 -0.00303857 0
0.0329855 -0.00237141 0
0.0327383 -0.00292205 0
0.0329683 -0.00209909 0
0.0301539 -0.00437253 0
0.0314197 -0.00382864 0
0.0324343 -0.00324769 0
0.03285 -0.00291129 0
0.0318996 -0.00366256 0
0.0329707 -0.00231879 0
0.0329855 -0.00262032 0
0.0315189 -0.00392529 0
0.0322697 -0.0035912 0
0.0296098 -0.00472528 0
0.0287854 -0.00484669 0
0.0307202 -0.00443886 0
0.0329358 -0.00300278 0
0.0320111 -0.00380977 0
0.0279891 -0.0049559 0
0.0328846 -0.00225595 0
0.0316505 -0.0040663 0
0.032983 -0.00286894 0
0.0328852 -0.00229459 0
0.032972 -0.00261227 0
0.0325619 -0.00354157 0
0.0328858 -0.00233304 0
0.0328324 -0.00331013 0
0.0328866 -0.00238254 0
0.0328873 -0.00243184 0
0.0328882 -0.00249665 0
0.0313383 -0.00441555 0
0.0321435 -0.00401258 0
0.0313535 -0.00443112 0
0.0313687 -0.00444678 0
0.032889 -0.00256123 0
0.0313909 -0.00447002 0
0.031817 -0.00427046 0
0.0329763 -0.00319053 0
0.0314129 -0.00449343 0
0.03289 -0.00264711 0
0.0314444 -0.00452768 0
0.0329699 -0.00300089 0
0.0328907 -0.00273274 0
0.0314754 -0.00456228 0
0.0315189 -0.00461221 0
0.0296471 -0.00514682 0
0.0322598 -0.00422257 0
0.0328913 -0.002847 0
0.0326849 -0.00392708 0
0.0328047 -0.00381462 0
0.0315613 -0.00466283 0
0.0329653 -0.00351276 0
0.0328915 -0.00296104 0
0.0325311 -0.00416862 0
0.0310684 -0.00491982 0
0.0316191 -0.00473487 0
0.0329008 -0.00381287 0
0.0320144 -0.00456322 0
0.0328912 -0.00311269 0
0.0307712 -0.00512294 0
0.031675 -0.00480821 0
0.0280234 -0.00541745 0
0.0329596 -0.00351006 0
0.0177845 -0.00364944 0
0.0328901 -0.00326422 0
0.0323881 -0.00450515 0
0.0302373 -0.00534566 0
0.0317486 -0.00491118 0
0.0329459 -0.00392382 0
0.0327013 -0.00301098 0
0.0327702 -0.00432444 0
0.0328875 -0.00346421 0
0.0327024 -0.00309901 0
0.0318186 -0.00501647 0
0.0296578 -0.00557131 0
0.0327034 -0.00320903 0
0.0313623 -0.0052676 0
0.0313884 -0.00530002 0
0.0328836 -0.00366418 0
0.0324916 -0.00479755 0
0.0322283 -0.00497686 0
0.0327042 -0.00335001 0
0.0314261 -0.00534832 0
0.0319069 -0.0051622 0
0.0329206 -0.00433647 0
0.0314795 -0.00541939 0
0.0288305 -0.00575631 0
0.032933 -0.00416864 0
0.0327044 -0.00353364 0
0.0328764 -0.00392519 0
0.0319887 -0.00531182 0
0.0315527 -0.00552271 0
0.0234547 -0.0051618 0
0.0327193 -0.00495325 0
0.0307665 -0.00580685 0
0.0327029 -0.00377476 0
0.0328269 -0.00483836 0
0.028023 -0.00588556 0
0.0328669 -0.00418624 0
0.0325912 -0.00518308 0
0.0316495 -0.00567132 0
0.0320864 -0.00551583 0
0.0296414 -0.00602569 0
0.0328812 -0.00485355 0
0.0326983 -0.00409165 0
0 0 0
0.0328513 -0.00452222 0
0.032428 -0.00555136 0
0.0324242 -0.00380893 0
0.0317716 -0.00588292 0
0.0321725 -0.00572613 0
0.0324247 -0.00385932 0
0.0324251 -0.00390951 0
0.00974026 -0.00209908 0
0.0313202 -0.0061121 0
0.0324255 -0.00397098 0
0.0328776 -0.00500676 0
0.0313316 -0.00612879 0
0.0313429 -0.00614554 0
0.0324258 -0.00403225 0
0.0326563 -0.00558229 0
0.0313595 -0.00617034 0
0.0326873 -0.00450604 0
0.0328319 -0.00485807 0
0.032426 -0.00410935 0
0.0313758 -0.00619526 0
0.0328335 -0.00537143 0
0.0313993 -0.00623161 0
0.032426 -0.00418623 0
0.0314223 -0.00626821 0
0.0322669 -0.00600829 0
0.0324257 -0.00428482 0
0.031916 -0.00618122 0
0.0314545 -0.00632079 0
0.0301821 -0.00645512 0
0.0177229 -0.00393774 0
0.0324251 -0.00438317 0
0.0295972 -0.0064813 0
0.031486 -0.00637388 0
0.0279844 -0.00635637 0
0.0324238 -0.00451067 0
0.0315286 -0.00644904 0
0.0328021 -0.00528308 0
0.0306998 -0.00659243 0
0.0309953 -0.00657133 0
0.032422 -0.00463788 0
0.0315698 -0.00652518 0
0.0326648 -0.00504253 0
0.032342 -0.00629983 0
0.0324189 -0.00480335 0
0.0326918 -0.00609915 0
0.0316238 -0.00663144 0
0.0327634 -0.00600451 0
0.0287483 -0.00668716 0
0.0320705 -0.00659734 0
0.0325636 -0.00633521 0
0.0324149 -0.00496844 0
0.0316749 -0.0067395 0
0.0327664 -0.00570723 0
0.0327763 -0.00605055 0
0.0324084 -0.00518254 0
0.0317392 -0.00688817 0
0.0324106 -0.00668411 0
0.0295208 -0.00696976 0
0.0319858 -0.00480227 0
0.0326222 -0.0057273 0
0.0311983 -0.00707334 0
0.0324004 -0.00539609 0
0.0319868 -0.00491913 0
0.031218 -0.00710745 0
0.0317982 -0.00704 0
0.0312465 -0.00715813 0
0.0279112 -0.00683152 0
0.0319874 -0.00505828 0
0.0327138 -0.00623346 0
0.03268 -0.00663498 0
0.0312865 -0.00723239 0
0.0323879 -0.00567079 0
0.0319873 -0.00522864 0
0.0318679 -0.0072459 0
0.0322092 -0.00717071 0
0.0313412 -0.00733975 0
0.0305702 -0.00737165 0
0.0324495 -0.00708171 0
0.0319857 -0.00544182 0
0.032373 -0.00594457 0
0.031413 -0.00749305 0
0.0319282 -0.00745701 0
0.0326524 -0.00675699 0
0.0319815 -0.00571233 0
0.0294165 -0.00745708 0
0.032547 -0.00658575 0
0.0323505 -0.0062925 0
0.0315025 -0.00770944 0
0.0175991 -0.00420742 0
0.0232492 -0.00599156 0
0.0325622 -0.00738567 0
0.0319923 -0.00773893 0
0.0299525 -0.00769936 0
0.0319725 -0.00605782 0
0.032604 -0.00731555 0
0.0324582 -0.00759586 0
0.027802 -0.00730656 0
0.0323241 -0.00663878 0
0.0316063 -0.00801156 0
0.0325652 -0.00739199 0
0.0310021 -0.00801812 0
0.0314502 -0.00585397 0
0.0310107 -0.00803547 0
0.0310193 -0.00805287 0
0.0320406 -0.00802894 0
0.028544 -0.00763247 0
0.0314507 -0.00592146 0
0.0322871 -0.00794913 0
0.0310318 -0.00807861 0
0.0319552 -0.00649881 0
0.0310442 -0.00810443 0
0.031451 -0.00598879 0
0.031062 -0.00814203 0
0.0314511 -0.0060672 0
0.0310795 -0.00817983 0
0.0322856 -0.00707204 0
0.031451 -0.0061454 0
0.0311038 -0.00823401 0
0.0314506 -0.00623917 0
0.0311274 -0.00828859 0
0.0292734 -0.00797911 0
0.0314499 -0.00633269 0
0.0303572 -0.00824358 0
0.0324242 -0.00812789 0
0.0311594 -0.00836564 0
0.032421 -0.00763864 0
0.0314487 -0.00644751 0
0.0317136 -0.00842878 0
0.0311901 -0.00844346 0
0.0320793 -0.00840981 0
0.031924 -0.00705801 0
0.031447 -0.00656199 0
0.0322412 -0.00750231 0
0.032465 -0.008021 0
0.0306111 -0.00841802 0
0 0 0
0.0312301 -0.00855168 0
0.0314443 -0.00670495 0
0.0276595 -0.00778311 0
0.0312677 -0.00866131 0
0.031441 -0.00684744 0
0.0314358 -0.0070271 0
0.0313144 -0.0088115 0
0.0320929 -0.00880243 0
0.0321781 -0.00803076 0
0.0314297 -0.00720608 0
0.0318702 -0.00775884 0
0.0313566 -0.00896418 0
0.0318014 -0.00899813 0
0.032327 -0.00880172 0
0.0291029 -0.00849729 0
0.0314204 -0.00743238 0
0.0323276 -0.00876507 0
0.0322362 -0.00898718 0
0.0173996 -0.00450701 0
0.0314054 -0.00917024 0
0.0307002 -0.00906192 0
0.0314094 -0.00765762 0
0.0307157 -0.00909694 0
0.0321064 -0.0085539 0
0.0307378 -0.00914888 0
0.0307131 -0.00713043 0
0.0320752 -0.00930851 0
0.03222 -0.00889743 0
0.0307688 -0.00922479 0
0.0314463 -0.00938048 0
0.0313933 -0.00794148 0
0.030714 -0.00728659 0
0.0300765 -0.00910088 0
0.0274849 -0.00825627 0
0.0308109 -0.00933416 0
0.0307141 -0.007464 0
0.0282237 -0.00858431 0
0.0317812 -0.00862306 0
0.0295127 -0.00906567 0
0.0313747 -0.00822366 0
0.0308656 -0.0094896 0
0.0314874 -0.00965986 0
0.0307129 -0.007671 0
0.0321718 -0.0094978 0
0.0318297 -0.00976439 0
0.0320074 -0.00918292 0
0.0307095 -0.00791842 0
0.030933 -0.00970767 0
0.0288862 -0.0090501 0
0.0320201 -0.00983036 0