# vtk DataFile Version 3.0
File generated from DClib
ASCII

DATASET UNSTRUCTURED_GRID
POINTS 1909 float
50 0 0 
48.75 0 0 
50 1.66667 0 
47.5 0 0 
50 3.33333 0 
46.25 0 0 
50 5 0 
45 0 0 
43.75 0 0 
50 6.66667 0 
43 2 0 
42.5 0 0 
50 8.33333 0 
43 4.66667 0 
41.25 0 0 
41.075 2 0 
50 10 0 
40 0 0 
43 7.33333 0 
39.15 2 0 
38.75 0 0 
43 10 0 
37.5 0 0 
37.225 2 0 
36.25 0 0 
36 4 0 
35.3 2 0 
36 5 0 
35 0 0 
35.325 4 0 
36 6 0 
36 7 0 
34.65 4 0 
36 8 0 
33.75 0 0 
33.975 4 0 
36 9 0 
33.375 2 0 
33.3 4 0 
36 10 0 
32.5 0 0 
32.625 4 0 
33 6 0 
31.95 4 0 
33 7.45455 0 
31.45 2 0 
31.25 0 0 
31.95 6 0 
33 8.79545 0 
31.275 4 0 
33 10 0 
30.6 4 0 
30 0 0 
30.9 6 0 
29.925 4 0 
29.525 2 0 
29.85 6 0 
29.25 4 0 
28.75 0 0 
30 8 0 
30 8.45455 0 
28.575 4 0 
29.625 8 0 
30 8.90909 0 
28.8 6 0 
30 9.25 0 
29.782 8.90909 0 
30 9.59091 0 
29.9487 9.59091 0 
29.25 8 0 
29.7462 9.25 0 
30 9.79545 0 
29.897 9.59091 0 
29.564 8.90909 0 
29.9547 9.79545 0 
29.3462 8.45455 0 
29.84 9.59091 0 
30 10 0 
29.8975 9.79545 0 
29.9882 10 0 
29.9902 10.0098 0 
29.7827 9.59091 0 
29.9765 10 0 
29.9804 10.0196 0 
29.9667 10.0098 0 
29.9591 10 0 
29.9686 10.0196 0 
29.9659 10.0341 0 
29.9569 10.0196 0 
29.9418 10 0 
29.9395 10.0196 0 
29.9515 10.0485 0 
29.932 10.0098 0 
29.9424 10.0341 0 
29.8241 9.79545 0 
29.7181 9.59091 0 
29.9166 10 0 
29.9397 10.0485 0 
29.9222 10.0196 0 
29.9279 10.0485 0 
29.9305 10.0695 0 
29.8914 10 0 
29.9077 10.0341 0 
27.9 4 0 
29.897 10.0196 0 
29.9106 10.0485 0 
29.8817 10.0098 0 
29.907 10.0695 0 
29.8933 10.0485 0 
29.9095 10.0905 0 
29.8719 10.0196 0 
27.6 2 0 
29.8556 10 0 
29.8978 10.0905 0 
29.6531 9.59091 0 
29.3437 8.90909 0 
27.5 0 0 
29.8681 10.0485 0 
29.886 10.0905 0 
29.8574 10.0341 0 
29.4839 9.25 0 
29.8723 10.0695 0 
29.7289 9.79545 0 
29.836 10.0196 0 
29.8687 10.0905 0 
29.8197 10 0 
29.8797 10.1203 0 
29.843 10.0485 0 
29.8513 10.0905 0 
29.81 10.0098 0 
29.8561 10.1203 0 
29.8002 10.0196 0 
29.8221 10.0695 0 
29.8072 10.0485 0 
29.8262 10.0905 0 
29.5782 9.59091 0 
29.8498 10.1502 0 
29.7695 10 0 
29.7858 10.0341 0 
29.838 10.1502 0 
29.8215 10.1203 0 
29.8011 10.0905 0 
29.8262 10.1502 0 
29.7714 10.0485 0 
28.875 8 0 
29.75 10.0196 0 
29.8089 10.1502 0 
29.7654 10.0905 0 
29.7193 10 0 
29.7916 10.1502 0 
29.7505 10.0695 0 
29.8079 10.1921 0 
29.7713 10.1203 0 
29.7096 10.0098 0 
29.6047 9.79545 0 
29.503 9.59091 0 
29.7213 10.0485 0 
29.7665 10.1502 0 
29.6999 10.0196 0 
29.7844 10.1921 0 
29.7296 10.0905 0 
29.6856 10.0341 0 
29.7414 10.1502 0 
29.7497 10.1921 0 
29.6503 10 0 
29.7661 10.2339 0 
29.6712 10.0485 0 
29.6999 10.1203 0 
29.7543 10.2339 0 
29.6796 10.0905 0 
29.7057 10.1502 0 
29.7425 10.2339 0 
29.1235 8.90909 0 
29.6309 10.0196 0 
29.6504 10.0695 0 
29.4146 9.59091 0 
29.7252 10.2339 0 
29.6996 10.1921 0 
29.6701 10.1502 0 
29.7079 10.2339 0 
29.6296 10.0905 0 
29.5813 10 0 
29.6023 10.0485 0 
29.5716 10.0098 0 
29.6828 10.2339 0 
29.7086 10.2914 0 
29.2101 9.25 0 
29.562 10.0196 0 
29.6201 10.1502 0 
29.6578 10.2339 0 
29.4428 9.79545 0 
29.5999 10.1203 0 
29.6849 10.2914 0 
29.6283 10.1921 0 
29.5477 10.0341 0 
29.3259 9.59091 0 
29.5608 10.0905 0 
29.5335 10.0485 0 
29.6221 10.2339 0 
29.6503 10.2914 0 
29.5702 10.1502 0 
29.4881 10 0 
29.5128 10.0695 0 
29.6511 10.3489 0 
29.5866 10.2339 0 
29.6392 10.3489 0 
29.4689 10.0196 0 
29.6002 10.2914 0 
29.6273 10.3489 0 
29.4921 10.0905 0 
29.61 10.3489 0 
29.5286 10.1921 0 
29.5016 10.1502 0 
29.5368 10.2339 0 
29.5926 10.3489 0 
29.4405 10.0485 0 
29.2199 9.59091 0 
29.4626 10.1203 0 
29.3949 10 0 
28.9 8.90909 0 
29.5676 10.3489 0 
29.5291 10.2914 0 
29.3853 10.0098 0 
28.6923 8.45455 0 
29.487 10.2339 0 
29.5426 10.3489 0 
29.3758 10.0196 0 
29.5734 10.4266 0 
29.4331 10.1502 0 
29.3993 10.0905 0 
28.5 8 0 
29.3617 10.0341 0 
29.5496 10.4266 0 
29.5071 10.3489 0 
29.2327 9.79545 0 
29.3475 10.0485 0 
29.1136 9.59091 0 
29.4187 10.2339 0 
29.5148 10.4266 0 
29.4716 10.3489 0 
29.3918 10.1921 0 
29.3271 10.0695 0 
29.4298 10.2914 0 
29.2714 10 0 
29.3406 10.1502 0 
28.9208 9.25 0 
29.3066 10.0905 0 
29.4648 10.4266 0 
29.422 10.3489 0 
29.4958 10.5042 0 
29.2524 10.0196 0 
27.75 6 0 
29.3504 10.2339 0 
29.4837 10.5042 0 
29.4718 10.5042 0 
29.2774 10.1203 0 
29.4543 10.5042 0 
29.3724 10.3489 0 
29.2244 10.0485 0 
29.4369 10.5042 0 
29.3938 10.4266 0 
28.9853 9.59091 0 
29.2481 10.1502 0 
28.6766 8.90909 0 
29.4119 10.5042 0 
29.2934 10.2914 0 
27.225 4 0 
29.148 10 0 
29.2582 10.2339 0 
29.1837 10.0905 0 
29.3869 10.5042 0 
29.1385 10.0098 0 
29.3044 10.3489 0 
29.1291 10.0196 0 
29.2072 10.1921 0 
29.3514 10.5042 0 
29.1152 10.0341 0 
29.3929 10.6071 0 
29.2949 10.4266 0 
29.1013 10.0485 0 
29.3686 10.6071 0 
29.316 10.5042 0 
29.2364 10.3489 0 
28.9623 9.79545 0 
29.1257 10.1502 0 
29.1662 10.2339 0 
29.0811 10.0695 0 
28.8566 9.59091 0 
29.3336 10.6071 0 
29.2666 10.5042 0 
29.0609 10.0905 0 
28.9875 10 0 
29.2835 10.6071 0 
29.1448 10.3489 0 
29.0321 10.1203 0 
29.2173 10.5042 0 
29.1098 10.2914 0 
28.125 8 0 
28.9688 10.0196 0 
29.1594 10.4266 0 
28.611 9.25 0 
29.29 10.71 0 
28.4486 8.90909 0 
29.0443 10.2339 0 
29.0033 10.1502 0 
29.2777 10.71 0 
28.9413 10.0485 0 
29.2128 10.6071 0 
29.2655 10.71 0 
29.1497 10.5042 0 
29.2478 10.71 0 
28.7003 9.59091 0 
29.0533 10.3489 0 
29.2303 10.71 0 
28.9629 10.1921 0 
28.9013 10.0905 0 
29.2051 10.71 0 
29.0822 10.5042 0 
29.1801 10.71 0 
28.827 10 0 
29.1144 10.6071 0 
28.8177 10.0098 0 
28.9225 10.2339 0 
28.8085 10.0196 0 
29.1447 10.71 0 
28.7949 10.0341 0 
28.8443 10.1502 0 
28.977 10.4266 0 
28.9322 10.3489 0 
29.1094 10.71 0 
28.7813 10.0485 0 
28.9912 10.5042 0 
29.1562 10.8438 0 
28.5436 9.59091 0 
28.7615 10.0695 0 
28.8669 10.2914 0 
29.1313 10.8438 0 
28.6184 9.79545 0 
29.0602 10.71 0 
28.2207 8.90909 0 
28.7418 10.0905 0 
28.0378 8.45455 0 
28.9798 10.6071 0 
29.0958 10.8438 0 
29.0112 10.71 0 
28.9005 10.5042 0 
28.7136 10.1203 0 
28.7644 10.2339 0 
28.8113 10.3489 0 
29.0454 10.8438 0 
28.6223 10 0 
28.6854 10.1502 0 
28.2746 9.25 0 
28.9441 10.71 0 
28.6042 10.0196 0 
27.75 8 0 
28.9747 10.8438 0 
28.6459 10.1921 0 
28.5773 10.0485 0 
29.0225 10.9775 0 
28.3532 9.59091 0 
28.7804 10.5042 0 
28.736 10.4266 0 
28.8772 10.71 0 
29.0097 10.9775 0 
28.9971 10.9775 0 
28.799 10.6071 0 
28.9791 10.9775 0 
28.5384 10.0905 0 
28.6064 10.2339 0 
28.6543 10.3489 0 
28.9611 10.9775 0 
28.8769 10.8438 0 
27.9867 8.90909 0 
26.25 0 0 
28.9358 10.9775 0 
28.7871 10.71 0 
28.9106 10.9775 0 
28.6607 10.5042 0 
28.4177 10 0 
26.55 4 0 
28.552 10.2914 0 
28.483 10.1502 0 
28.4087 10.0098 0 
28.8751 10.9775 0 
28.3998 10.0196 0 
28.3866 10.0341 0 
28.8399 10.9775 0 
28.6974 10.71 0 
28.3735 10.0485 0 
28.1625 9.59091 0 
28.7436 10.8438 0 
28.4976 10.3489 0 
28.3543 10.0695 0 
28.791 10.9775 0 
28.4052 10.2339 0 
28.3352 10.0905 0 
28.8519 11.1481 0 
28.1869 9.79545 0 
28.5607 10.6071 0 
28.5053 10.5042 0 
28.7423 10.9775 0 
28.8258 11.1481 0 
28.308 10.1203 0 
28.5787 10.71 0 
27.904 9.25 0 
28.7893 11.1481 0 
28.424 10.4266 0 
27.7528 8.90909 0 
28.2807 10.1502 0 
28.6758 10.9775 0 
27.375 8 0 
28.7383 11.1481 0 
28.1619 10 0 
28.5649 10.8438 0 
28.2425 10.1921 0 
28.6096 10.9775 0 
28.1444 10.0196 0 
28.298 10.3489 0 
28.4605 10.71 0 
26.7 6 0 
27.9315 9.59091 0 
28.3503 10.5042 0 
28.6676 11.1481 0 
28.1187 10.0485 0 
28.2042 10.2339 0 
28.5207 10.9775 0 
28.0813 10.0905 0 
28.6814 11.3186 0 
27.3818 8.45455 0 
28.6679 11.3186 0 
28.1516 10.2914 0 
28.5703 11.1481 0 
28.6544 11.3186 0 
28.6358 11.3186 0 
27.5109 8.90909 0 
28.3072 10.71 0 
28.6173 11.3186 0 
28.2524 10.6071 0 
28.4322 10.9775 0 
28.028 10.1502 0 
28.5915 11.3186 0 
28.0989 10.3489 0 
28.33 10.8438 0 
28.5658 11.3186 0 
28.153 10.5042 0 
27.9061 10 0 
27.8975 10.0098 0 
28.5303 11.3186 0 
28.4384 11.1481 0 
27.7002 9.59091 0 
27.889 10.0196 0 
27.8765 10.0341 0 
28.4949 11.3186 0 
28.3154 10.9775 0 
27.9532 10.2339 0 
27.8639 10.0485 0 
28.0276 10.4266 0 
28.1544 10.71 0 
27.8457 10.0695 0 
27.4909 9.25 0 
28.4463 11.3186 0 
27 8 0 
27.8275 10.0905 0 
28.3979 11.3186 0 
27.8015 10.1203 0 
27.6542 9.79545 0 
25.675 2 0 
28.1991 10.9775 0 
27.2691 8.90909 0 
27.9563 10.5042 0 
28.4682 11.5318 0 
28.2625 11.1481 0 
27.7755 10.1502 0 
28.3322 11.3186 0 
27.8502 10.3489 0 
28.4401 11.5318 0 
25.875 4 0 
27.7391 10.1921 0 
28.4019 11.5318 0 
28.0268 10.8438 0 
28.2668 11.3186 0 
27.9602 10.71 0 
28.3498 11.5318 0 
27.4223 9.59091 0 
27.7026 10.2339 0 
27.5927 10 0 
28.0486 10.9775 0 
27.8616 10.6071 0 
27.5762 10.0196 0 
28.1794 11.3186 0 
28.2786 11.5318 0 
27.5519 10.0485 0 
27.6524 10.2914 0 
28.0319 11.1481 0 
27.7108 10.5042 0 
27.5167 10.0905 0 
27.0169 8.90909 0 
28.0924 11.3186 0 
27.6021 10.3489 0 
27.8988 10.9775 0 
28.1818 11.5318 0 
27.7667 10.71 0 
26.625 8 0 
28.255 11.745 0 
27.4664 10.1502 0 
28.2402 11.745 0 
28.2256 11.745 0 
28.2059 11.745 0 
27.978 11.3186 0 
26.7234 8.45455 0 
27.0259 9.25 0 
27.5342 10.4266 0 
28.1863 11.745 0 
27.1442 9.59091 0 
28.0516 11.5318 0 
28.1598 11.745 0 
27.3959 10.2339 0 
28.1334 11.745 0 
27.2793 10 0 
27.2714 10.0098 0 
27.2635 10.0196 0 
27.7086 10.9775 0 
27.6431 10.8438 0 
28.0975 11.745 0 
27.8643 11.3186 0 
27.4661 10.5042 0 
27.2518 10.0341 0 
27.2401 10.0485 0 
28.0617 11.745 0 
26.7648 8.90909 0 
27.5255 10.71 0 
27.7353 11.1481 0 
27.2231 10.0695 0 
28.0133 11.745 0 
27.2061 10.0905 0 
27.8791 11.5318 0 
27.2986 10.3489 0 
27.1818 10.1203 0 
27.9651 11.745 0 
27.3758 10.6071 0 
27.0077 9.79545 0 
27.7174 11.3186 0 
27.1576 10.1502 0 
25 0 0 
27.5193 10.9775 0 
27.9003 11.745 0 
27.1236 10.1921 0 
26.25 8 0 
27.9939 12.0061 0 
25.65 6 0 
27.8359 11.745 0 
26.8136 9.59091 0 
27.0896 10.2339 0 
27.9626 12.0061 0 
27.2853 10.71 0 
25.2 4 0 
27.5713 11.3186 0 
27.9218 12.0061 0 
26.4998 8.90909 0 
27.167 10.5042 0 
27.6541 11.5318 0 
27.0427 10.2914 0 
27.7503 11.745 0 
26.9033 10 0 
27.8677 12.0061 0 
26.8882 10.0196 0 
26.8659 10.0485 0 
26.9958 10.3489 0 
27.2836 10.9775 0 
27.6652 11.745 0 
27.3609 11.1481 0 
27.7955 12.0061 0 
26.499 9.25 0 
[...]
POINT_DATA 1909
SCALARS phi float 1
LOOKUP_TABLE default
VECTORS Displacement float
0 0 0
0 0 0
0 -0.0016547 0
0 0 0
0 -0.000847383 0
0 0 0
0 0.00221238 0
0 0 0
0 0 0
0 0.00731281 0
0.0144284 -0.0006063 0
0 0 0
0 0.0141749 0
0.027282 0.00512664 0
0 0 0
0.0194937 -0.0006007 0
0 0.0222852 0
0 0 0
0.0362788 0.0163333 0
0.0248633 -0.000711103 0
0 0 0
0.0411322 0.0310424 0
0 0 0
0.0303875 -0.000993734 0
0 0 0
0.0569078 0.00370086 0
0.035764 -0.00141756 0
0.0675082 0.00813276 0
0 0 0
0.061009 0.00338715 0
0.0749871 0.0137902 0
0.0798299 0.0202639 0
0.064902 0.00305288 0
0.0828746 0.0268588 0
0 0 0
0.0687507 0.00254899 0
0.0851225 0.0334531 0
0.0407242 -0.00195708 0
0.0723999 0.00201114 0
0.0872499 0.0403058 0
0 0 0
0.075852 0.00138742 0
0.0980913 0.0115241 0
0.0790743 0.000732881 0
0.10802 0.0225729 0
0.0450398 -0.00259174 0
0 0 0
0.105984 0.00848181 0
0.112474 0.0363926 0
0.0820634 -3.70267e-06 0
0.113031 0.0545368 0
0.084793 -0.000777336 0
0 0 0
0.11227 0.0056982 0
0.0872675 -0.00160664 0
0.0485164 -0.00330039 0
0.117498 0.00282619 0
0.0894722 -0.0024843 0
0 0 0
0.138753 0.0126046 0
0.143039 0.0156461 0
0.0914176 -0.003387 0
0.141313 0.0105463 0
0.147408 0.019218 0
0.12177 -0.000211719 0
0.150451 0.024222 0
0.149428 0.0174171 0
0.153321 0.0314155 0
0.153913 0.0295093 0
0.143574 0.00849246 0
0.153041 0.0206538 0
0.153886 0.036623 0
0.154487 0.0280258 0
0.151223 0.015711 0
0.154479 0.0346151 0
0.147863 0.0114084 0
0.155035 0.0265747 0
0.153877 0.0426831 0
0.155282 0.0324408 0
0.154162 0.0428239 0
0.18425 0.0536822 0
0.15554 0.0253186 0
0.154489 0.0427835 0
0.202395 0.0596794 0
0.183501 0.0531406 0
0.154992 0.0426501 0
0.201534 0.059162 0
0.204036 0.0593832 0
0.20058 0.0584995 0
0.155536 0.0424164 0
0.199 0.0575434 0
0.204053 0.0588115 0
0.182256 0.0518704 0
0.203252 0.0582623 0
0.156377 0.0302161 0
0.15607 0.024114 0
0.156331 0.0417608 0
0.203993 0.0583077 0
0.197432 0.0564844 0
0.203935 0.0578171 0
0.204239 0.0581334 0
0.157138 0.0410883 0
0.201477 0.0565796 0
0.0930933 -0.00435736 0
0.195383 0.0548331 0
0.203726 0.0571285 0
0.180835 0.0494169 0
0.204112 0.0571508 0
0.203409 0.0563464 0
0.20399 0.0573338 0
0.193482 0.0531966 0
0.0510145 -0.00407625 0
0.158225 0.0397666 0
0.203938 0.0568254 0
0.156565 0.0230404 0
0.15293 0.0141002 0
0 0 0
0.202753 0.0550823 0
0.203873 0.0562896 0
0.198663 0.0537112 0
0.155351 0.0180373 0
0.203836 0.0555226 0
0.157796 0.0279902 0
0.191279 0.0507473 0
0.20376 0.0554409 0
0.159262 0.0385333 0
0.203702 0.0561529 0
0.201832 0.0537156 0
0.203646 0.0545519 0
0.179447 0.0455922 0
0.203578 0.0549895 0
0.189297 0.0484849 0
0.203035 0.0528549 0
0.200398 0.0516123 0
0.20345 0.053228 0
0.157145 0.0219946 0
0.203349 0.0548313 0
0.160561 0.0366768 0
0.194918 0.0493076 0
0.203272 0.0542168 0
0.203368 0.0531741 0
0.203238 0.0518937 0
0.203193 0.0535929 0
0.198786 0.0495551 0
0.145751 0.00647336 0
0.187092 0.0454462 0
0.203075 0.0526671 0
0.202818 0.050048 0
0.161718 0.0349733 0
0.202953 0.0517446 0
0.201152 0.0489925 0
0.202808 0.0528673 0
0.203041 0.0505325 0
0.178137 0.0407004 0
0.159494 0.0257361 0
0.157712 0.0210335 0
0.196577 0.0467321 0
0.202781 0.0504229 0
0.185294 0.042781 0
0.202668 0.0516063 0
0.20226 0.0482567 0
0.190522 0.0437278 0
0.202612 0.0491423 0
0.202457 0.0497857 0
0.163096 0.0328899 0
0.202285 0.0508852 0
0.19442 0.0441479 0
0.202468 0.047015 0
0.202208 0.0502558 0
0.201262 0.0458914 0
0.202381 0.0473958 0
0.202132 0.0496379 0
0.154484 0.012503 0
0.183363 0.0395756 0
0.197846 0.0440462 0
0.158384 0.0200132 0
0.202023 0.0487469 0
0.202152 0.047298 0
0.202172 0.0457628 0
0.201917 0.0478829 0
0.200028 0.0436723 0
0.164249 0.0309701 0
0.191732 0.0409265 0
0.176909 0.0353733 0
0.201772 0.046678 0
0.201616 0.0482332 0
0.157444 0.0155846 0
0.181944 0.0368289 0
0.201843 0.0436626 0
0.201633 0.0455311 0
0.161394 0.0233831 0
0.201192 0.0427373 0
0.201484 0.0470641 0
0.201757 0.0441301 0
0.186082 0.0376537 0
0.159063 0.0190521 0
0.198125 0.0408886 0
0.189403 0.0381047 0
0.201446 0.0439929 0
0.201296 0.0454406 0
0.201475 0.0417457 0
0.165579 0.0288988 0
0.193229 0.038377 0
0.200957 0.045744 0
0.20127 0.0425606 0
0.200897 0.0451959 0
0.180382 0.0337555 0
0.201041 0.0432826 0
0.200838 0.0446628 0
0.196099 0.038348 0
0.200755 0.0439025 0
0.20127 0.0403661 0
0.200764 0.039383 0
0.201044 0.040707 0
0.200674 0.0431707 0
0.186737 0.034836 0
0.159875 0.0179788 0
0.19848 0.0378627 0
0.16665 0.0269548 0
0.155959 0.0109121 0
0.200562 0.0421567 0
0.200716 0.0405564 0
0.175683 0.0300685 0
0.151847 0.00740595 0
0.200843 0.0390227 0
0.200455 0.0411934 0
0.179258 0.0310845 0
0.200254 0.0427054 0
0.199814 0.0372151 0
0.19339 0.0352871 0
0.147701 0.00440725 0
0.182151 0.031651 0
0.20015 0.0417366 0
0.200311 0.0398997 0
0.163412 0.0207902 0
0.184646 0.03202 0
0.160702 0.016949 0
0.200573 0.0369166 0
0.200005 0.040405 0
0.200177 0.0386896 0
0.200367 0.0361217 0
0.188017 0.0324033 0
0.200331 0.0372963 0
0.167852 0.024892 0
0.19819 0.0345924 0
0.15939 0.0130922 0
0.190865 0.0325583 0
0.199811 0.0386352 0
0.2 0.0371184 0
0.199523 0.0399476 0
0.177918 0.0281274 0
0.125046 -0.00337561 0
0.200302 0.0350227 0
0.199482 0.0395093 0
0.199443 0.0390826 0
0.194 0.0324695 0
0.199387 0.0384752 0
0.199836 0.035667 0
0.182418 0.0288712 0
0.199333 0.0378884 0
0.199562 0.0363786 0
0.161669 0.0157438 0
0.196283 0.0321596 0
0.157326 0.00931495 0
0.199256 0.037074 0
0.199907 0.0335623 0
0.0945033 -0.0053149 0
0.168815 0.0229086 0
0.199755 0.03272 0
0.187906 0.0293613 0
0.199183 0.036295 0
0.174471 0.024812 0
0.199626 0.0338297 0
0.176945 0.0254835 0
0.198076 0.0314272 0
0.199081 0.0352408 0
0.178969 0.0258524 0
0.198791 0.0367432 0
0.199255 0.0336125 0
0.180751 0.0261087 0
0.19872 0.0359731 0
0.198984 0.0342419 0
0.199435 0.0321472 0
0.165466 0.0177413 0
0.193607 0.0292315 0
0.198958 0.0305945 0
0.183219 0.0263931 0
0.162634 0.0145678 0
0.198622 0.0349139 0
0.198851 0.0329244 0
0.185491 0.02656 0
0.16986 0.0206881 0
0.198488 0.0334915 0
0.199192 0.03005 0
0.188445 0.0266454 0
0.198725 0.0316858 0
0.199194 0.0293615 0
0.149497 0.00233747 0
0.175839 0.022511 0
0.198886 0.0303316 0
0.161289 0.0105316 0
0.198011 0.0338443 0
0.158574 0.00766718 0
0.197476 0.028042 0
0.190969 0.0265538 0
0.197986 0.0334969 0
0.17909 0.0230198 0
0.198311 0.0316365 0
0.197962 0.033157 0
0.198556 0.0300925 0
0.197929 0.0326743 0
0.163746 0.0131615 0
0.198956 0.0281389 0
0.197896 0.0322043 0
0.193672 0.0261762 0
0.183009 0.0233369 0
0.197849 0.031549 0
0.198393 0.0286019 0
0.197802 0.0309143 0
0.17072 0.0185324 0
0.198081 0.0292917 0
0.173589 0.0194376 0
0.195604 0.0256298 0
0.175153 0.0198268 0
0.197736 0.0300473 0
0.176613 0.0200739 0
0.187921 0.0233619 0
0.198463 0.0265406 0
0.198463 0.0258191 0
0.19767 0.0292132 0
0.177883 0.0202369 0
0.198178 0.0267274 0
0.197208 0.0305106 0
0.164818 0.0117704 0
0.179587 0.0203986 0
0.197081 0.0246792 0
0.197164 0.029881 0
0.167522 0.0140571 0
0.197576 0.0280988 0
0.159731 0.00603059 0
0.181186 0.0204967 0
0.155047 0.0032881 0
0.197783 0.0264164 0
0.197101 0.0290136 0
0.197482 0.027034 0
0.197969 0.0249866 0
0.183365 0.0205562 0
0.192961 0.0227334 0
0.197716 0.0236659 0
0.197013 0.0278362 0
0.171601 0.0160126 0
0.185424 0.0205289 0
0.163144 0.00782453 0
0.197351 0.0256455 0
0.174546 0.0167978 0
0.151044 0.000245394 0
0.196894 0.0262746 0
0.188057 0.0203601 0
0.176822 0.0171056 0
0.196412 0.0274396 0
0.166023 0.0100915 0
0.197703 0.0228439 0
0.197769 0.0222605 0
0.19722 0.0243314 0
0.196396 0.0271458 0
0.196379 0.0268571 0
0.197399 0.023007 0
0.196357 0.0264518 0
0.179534 0.0172624 0
0.190337 0.0200511 0
0.196307 0.0211188 0
0.196334 0.0260547 0
0.196734 0.0242618 0
0.160792 0.00435066 0
0 0 0
0.196301 0.0255032 0
0.197045 0.0226681 0
0.196267 0.0249655 0
0.197447 0.0208847 0
0.17237 0.0135766 0
0.095629 -0.00635496 0
0.192771 0.0194369 0
0.183023 0.0172207 0
0.173553 0.0138844 0
0.196219 0.02423 0
0.174362 0.0140379 0
0.175293 0.0141552 0
0.196171 0.0235181 0
0.196876 0.0211159 0
0.176159 0.0142367 0
0.167139 0.00841727 0
0.19652 0.021759 0
0.194493 0.0186858 0
0.177333 0.0143083 0
0.196103 0.0225644 0
0.187435 0.0168246 0
0.178429 0.014337 0
0.195532 0.0238668 0
0.169676 0.00969763 0
0.196934 0.0191259 0
0.19694 0.0185384 0
0.196035 0.0216513 0
0.195506 0.0233189 0
0.179908 0.0143242 0
0.196659 0.0192052 0
0.164924 0.00488829 0
0.195469 0.022575 0
0.195763 0.0175266 0
0.161752 0.00267471 0
0.18133 0.0142658 0
0.195943 0.0204585 0
0.152388 -0.00184647 0
0.195417 0.021573 0
0.173187 0.0107183 0
0.196239 0.0187708 0
0.183262 0.0141198 0
0.195855 0.0193307 0
0.17438 0.0109059 0
0.191993 0.0157457 0
0.196444 0.0174207 0
0.127293 -0.00664716 0
0.168329 0.00639076 0
0.196239 0.0163274 0
0.195346 0.0202487 0
0.175746 0.0109897 0
0.185113 0.0139012 0
0.195739 0.017892 0
0.177565 0.0109962 0
0.194623 0.0205368 0
0.157535 -0.000854454 0
0.194615 0.0202776 0
0.187458 0.0134869 0
0.195246 0.0185467 0
0.194606 0.0200234 0
0.194595 0.0196742 0
0.162635 0.000945714 0
0.196146 0.0152139 0
0.194583 0.0193327 0
0.196168 0.0147145 0
0.195625 0.0165283 0
0.179923 0.0108416 0
0.194567 0.018865 0
0.18951 0.0129468 0
0.195856 0.0152585 0
0.194552 0.0184101 0
0.194936 0.0136603 0
0.173932 0.00794026 0
0.174293 0.00795791 0
0.194529 0.017794 0
0.195108 0.0164196 0
0.16938 0.00436579 0
0.174678 0.00797757 0
0.175161 0.00796932 0
0.194507 0.0171981 0
0.195478 0.0148099 0
0.182998 0.0104144 0
0.175662 0.0079593 0
0.191666 0.0120518 0
0.195815 0.0131143 0
0.176379 0.00792928 0
0.166561 0.00163141 0
0.194477 0.016404 0
0.153493 -0.00394305 0
0.177088 0.00788434 0
0.194447 0.0156367 0
0.178065 0.00779175 0
0.171929 0.00459843 0
0.0524023 -0.00494158 0
0.195313 0.0131509 0
0.1634 -0.000787705 0
0.193183 0.0110322 0
0.193698 0.0167607 0
0.194919 0.0137892 0
0.179006 0.00767032 0
0.194409 0.0146284 0
0.186866 0.00952402 0
0.193687 0.0162757 0
0.096478 -0.0073902 0
0.180284 0.00746148 0
0.193672 0.0156365 0
0.195294 0.0110709 0
0.194367 0.0136484 0
0.195249 0.0105477 0
0.19365 0.0147915 0
0.170418 0.00193404 0
0.181524 0.00721347 0
0.174884 0.00471572 0
0.19507 0.0110682 0
0.194242 0.0095652 0
0.17523 0.00462139 0
0.194301 0.0123721 0
0.19362 0.013679 0
0.175876 0.00450845 0
0.183185 0.00681529 0
0.194634 0.0105233 0
0.190812 0.00784816 0
0.176897 0.00433791 0
0.164085 -0.00259497 0
0.194225 0.011124 0
0.184785 0.0063545 0
0.194787 0.00905809 0
0.193575 0.0122206 0
0.194546 0.00807392 0
0.1544 -0.00606842 0
0.192694 0.0132468 0
0.178381 0.00404877 0
0.192695 0.0130157 0
0.192696 0.0127881 0
0.192697 0.0124851 0
0.19411 0.00951285 0
0.159304 -0.0050436 0
0.167948 -0.00204033 0
0.186771 0.00563018 0
0.192698 0.0121866 0
0.171257 -0.000495049 0
0.193503 0.010321 0
0.192699 0.0117847 0
0.180376 0.00353408 0
0.192699 0.0113884 0
0.17568 0.00157072 0
0.175815 0.00150931 0
0.175951 0.0014477 0
0.194381 0.00657216 0
0.194334 0.00611984 0
0.192697 0.0108537 0
0.193978 0.00794071 0
0.188517 0.00479937 0
0.176146 0.00135507 0
0.176346 0.00126197 0
0.192694 0.0103257 0
0.164642 -0.00441118 0
0.193277 0.0051202 0
0.194163 0.00651839 0
0.176694 0.00114224 0
0.192684 0.00961718 0
0.17706 0.00102273 0
0.193382 0.00787061 0
0.182971 0.00264663 0
0.177611 0.000853428 0
0.192671 0.00891757 0
0.190332 0.00356732 0
0.173852 -0.00140279 0
0.193783 0.00595274 0
0.178172 0.000675549 0
0 0 0
0.193926 0.004182 0
0.192648 0.00798686 0
0.17895 0.000406423 0
0.15508 -0.00820333 0
0.191596 0.00925866 0
0.128493 -0.0100504 0
0.19262 0.00706919 0
0.172017 -0.00336537 0
0.179723 0.000117182 0
0.191598 0.00879267 0
0.191581 0.00222536 0
0.0970187 -0.00853376 0
0.193561 0.00402206 0
0.191598 0.00819063 0
0.165103 -0.0063255 0
0.18617 0.00116926 0
0.19317 0.00477144 0
0.180756 -0.000319857 0
0.192576 0.00586331 0
0.176456 -0.00212957 0
0.191596 0.0073995 0
0.176689 -0.00226427 0
0.177037 -0.00246547 0
0.181767 -0.000792343 0
0.193253 0.00131007 0
0.192524 0.00467891 0
0.193387 0.00174197 0
0.191588 0.00635295 0
0.168954 -0.00621229 0
0.177563 -0.00275836 0
0.192371 0.000389423 0
0.193236 0.00163759 0
0.183091 -0.00148764 0
0.19157 0.00497102 0
0.192442 0.00315079 0
0.178344 -0.00319012 0
0.189374 -0.00120179 0
0.16543 -0.00824928 0
0.160348 -0.00931538 0
0.172516 -0.00623351 0
0.192803 0.000950795 0
0.184373 -0.00224084 0
0.155563 -0.0103728 0
0.190366 0.00538599 0
0.179474 -0.00382937 0
0.192346 0.00165526 0
0.190368 0.00514328 0
0.19153 0.00316344 0
0.192488 -0.00145959 0
0.19037 0.00490262 0
0.192859 -0.00066635 0
0.190372 0.00459413 0
0.190373 0.00428819 0
0.190375 0.00388859 0
0.176855 -0.00578426 0
0.185923 -0.00333055 0
0.176971 -0.0058553 0
0.177086 -0.00592682 0
0.190375 0.00349243 0
0.17725 -0.00603303 0
0.180993 -0.00479404 0
0.192198 -0.000236022 0
0.177412 -0.00614013 0
0.190375 0.00296951 0
0.177645 -0.00629631 0
0.19145 0.000835238 0
0.190373 0.00245165 0
0.177876 -0.00645429 0
0.178202 -0.00668216 0
0.165642 -0.0102944 0
0.187291 -0.00451278 0
0.190369 0.00176653 0
0.192144 -0.00382032 0
0.192325 -0.0034587 0
0.178527 -0.00691376 0
0.192027 -0.00208154 0
0.190362 0.00108906 0
0.19118 -0.00470751 0
0.174849 -0.00842889 0
0.17898 -0.00724504 0
0.192184 -0.0036453 0
0.182952 -0.00624595 0
0.190349 0.000196957 0
0.17283 -0.00957599 0
0.17943 -0.007585 0
0.155824 -0.0125609 0
0.191298 -0.00210918 0
0.0972531 -0.00966356 0
0.190333 -0.000683605 0
0.188661 -0.00615332 0
0.169431 -0.0109583 0
0.180042 -0.00806837 0
0.191772 -0.00436809 0
0.188813 0.000835603 0
0.19172 -0.00615088 0
0.190304 -0.00183105 0
0.188815 0.000320887 0
0.180638 -0.00856998 0
0.165714 -0.0123474 0
0.188816 -0.000317071 0
0.176993 -0.00996364 0
0.177184 -0.0101096 0
0.190268 -0.0029617 0
0.189552 -0.00788115 0
0.185305 -0.00841526 0
0.188814 -0.00112724 0
0.177467 -0.0103278 0
0.18141 -0.00927655 0
0.191478 -0.00659283 0
0.177876 -0.0106507 0
0.160673 -0.0136897 0
0.191021 -0.00575783 0
0.188808 -0.00217102 0
0.190209 -0.00441492 0
0.182147 -0.0100142 0
0.178449 -0.0111237 0
0.128643 -0.0136574 0
0.19087 -0.00933703 0
0.172838 -0.0129139 0
0.188793 -0.00352284 0
0.19117 -0.0090421 0
0.155886 -0.014779 0
0.190137 -0.00584377 0
0.190009 -0.0101495 0
0.179226 -0.0118123 0
0.183073 -0.0110384 0
0.165647 -0.0145439 0
0.191055 -0.00928946 0
0.188759 -0.00526953 0
0 0 0
0.190023 -0.00765048 0
0.187593 -0.0115679 0
0.18692 -0.0036621 0
0.180239 -0.0128119 0
0.18394 -0.0121144 0
0.186921 -0.00393826 0
0.186923 -0.00421267 0
0.0524954 -0.00589517 0
0.176763 -0.0141029 0
0.186925 -0.00454872 0
0.190532 -0.0101777 0
0.176851 -0.014179 0
0.176939 -0.0142554 0
0.186927 -0.00488264 0
0.189935 -0.012413 0
0.177065 -0.0143687 0
0.188689 -0.00750818 0
0.189885 -0.00942223 0
0.186929 -0.00530176 0
0.177192 -0.0144827 0
0.190568 -0.0119032 0
0.177372 -0.0146494 0
0.18693 -0.00571814 0
0.177551 -0.0148179 0
0.184983 -0.0135752 0
0.186929 -0.00625007 0
0.181499 -0.0142583 0
0.177803 -0.015061 0
0.169186 -0.0163454 0
0.0971451 -0.0109423 0
0.186928 -0.00677836 0
0.165435 -0.0167469 0
0.17805 -0.0153078 0
0.155729 -0.0170203 0
0.186923 -0.00745983 0
0.178391 -0.0156595 0
0.189676 -0.011621 0
0.172532 -0.0167409 0
0.174532 -0.0164909 0
0.186916 -0.00813624 0
0.178724 -0.0160184 0
0.188552 -0.0103399 0
0.185884 -0.0151169 0
0.186903 -0.00901078 0
0.189573 -0.0152148 0
0.179167 -0.0165236 0
0.189885 -0.0150045 0
0.160297 -0.0181676 0
0.182937 -0.0163422 0
0.188587 -0.015921 0
0.186885 -0.00987804 0
0.179595 -0.0170419 0
0.189426 -0.0137713 0
0.189694 -0.0154041 0
0.186854 -0.0109949 0
0.180144 -0.017763 0
0.186663 -0.0171911 0
0.165046 -0.0191149 0
0.184407 -0.00894353 0
0.188294 -0.0138613 0
0.176086 -0.0188321 0
0.186815 -0.0121009 0
0.184408 -0.00955439 0
0.176235 -0.01899 0
0.18066 -0.0185082 0
0.176454 -0.0192258 0
0.155375 -0.0192856 0
0.184407 -0.0102783 0
0.189058 -0.0163869 0
0.189101 -0.0180011 0
0.176764 -0.019573 0
0.186751 -0.0135123 0
0.184401 -0.0111609 0
0.181292 -0.0195304 0
0.184404 -0.0193171 0
0.177192 -0.0200786 0
0.171856 -0.0205643 0
0.187084 -0.0193551 0
0.184388 -0.0122602 0
0.186673 -0.0149077 0
0.177765 -0.0208081 0
0.181858 -0.0205921 0
0.188623 -0.0189408 0
0.184361 -0.0136475 0
0.164505 -0.0214881 0
0.187826 -0.0181558 0
0.186551 -0.0166652 0
0.178502 -0.0218521 0
0.0966935 -0.0121554 0
0.12772 -0.0175069 0
0.188022 -0.0214983 0
0.182495 -0.0220271 0
0.167985 -0.0224207 0
0.18431 -0.0154081 0
0.188306 -0.0214491 0
0.187102 -0.022146 0
0.154814 -0.0215705 0
0.186404 -0.0183995 0
0.179393 -0.0233353 0
0.188001 -0.0219883 0
0.17497 -0.0235202 0
0.181367 -0.0143272 0
0.175035 -0.0236022 0
0.1751 -0.0236845 0
0.183025 -0.023522 0
0.159245 -0.0227435 0
0.181368 -0.0146683 0
0.18545 -0.0234797 0
0.175195 -0.0238062 0
0.184214 -0.0176382 0
0.17529 -0.0239286 0
0.181369 -0.0150083 0
0.175426 -0.0241073 0
0.181369 -0.0154048 0
0.17556 -0.0242873 0
0.186181 -0.0205498 0
0.181369 -0.0157999 0
0.175748 -0.0245462 0
0.181367 -0.0162735 0
0.175933 -0.0248078 0
0.163742 -0.0240433 0
0.181364 -0.0167455 0
0.170703 -0.0248727 0
0.186817 -0.0249429 0
0.176185 -0.0251789 0
0.187012 -0.0232884 0
0.181357 -0.0173243 0
0.180383 -0.0254271 0
0.17643 -0.0255554 0
0.183524 -0.0255142 0
0.184039 -0.0204418 0
0.181349 -0.0179008 0
0.185917 -0.0226678 0
0.187273 -0.0249687 0
0.172426 -0.0256209 0
0 0 0
0.176753 -0.026082 0
0.181335 -0.0186198 0
0.154067 -0.0238751 0
0.177062 -0.0266188 0
0.181318 -0.0193356 0
0.181291 -0.0202366 0
0.177455 -0.0273596 0
0.183812 -0.0275941 0
0.185531 -0.0252491 0
0.181258 -0.0211329 0
0.18373 -0.023923 0
0.177821 -0.0281186 0
0.18132 -0.0283464 0
0.186132 -0.0284085 0
0.162824 -0.0265996 0
0.181207 -0.0222639 0
0.186281 -0.028485 0
0.185296 -0.0289894 0
0.0958483 -0.0135527 0
0.17826 -0.0291518 0
0.173227 -0.0287526 0
0.181147 -0.0233879 0
0.173343 -0.0289207 0
0.185081 -0.0277892 0
0.17351 -0.0291708 0
0.177335 -0.0207095 0
0.183865 -0.0302754 0
0.185668 -0.0293204 0
0.173745 -0.0295375 0
0.178647 -0.0302159 0
0.181057 -0.0248011 0
0.177336 -0.0214913 0
0.169135 -0.0291549 0
0.153134 -0.0261911 0
0.174069 -0.0300684 0
0.177331 -0.0223786 0
0.157535 -0.0274094 0
0.183203 -0.0281786 0
0.165574 -0.0291909 0
0.180951 -0.0262036 0
0.174498 -0.0308281 0
0.179074 -0.031643 0
0.177319 -0.0234132 0
0.185157 -0.031956 0
0.181886 -0.0323591 0
0.184451 -0.030832 0
0.177295 -0.0246492 0
0.175041 -0.0319035 0
0.161635 -0.0293468 0
0.183649 -0.0330302 0
0.180795 -0.0279522 0
0.179407 -0.0331181 0
0.125696 -0.0215807 0
0.17725 -0.0261532 0
0.180615 -0.0296848 0
0.175685 -0.0334108 0
0.0511227 -0.00688321 0
0.183731 -0.0338273 0
0.177172 -0.0280055 0
0.15203 -0.02852 0
0.179692 -0.035062 0
0.182341 -0.0332896 0
0.180356 -0.0318183 0
0.183709 -0.0360013 0
0.171011 -0.0338814 0
0.171061 -0.0339675 0
0.171111 -0.0340538 0
0.171185 -0.0341813 0
0.183044 -0.0364836 0
0.171259 -0.0343094 0
0.176376 -0.0355023 0
0.183603 -0.0363298 0
0.171365 -0.0344959 0
0.177039 -0.030298 0
0.171469 -0.0346834 0
0.171616 -0.0349524 0
0.16697 -0.0338546 0
0.160289 -0.0320843 0
0.172787 -0.0273771 0
0.179826 -0.0370653 0
0.171759 -0.0352234 0
0.094638 -0.0147946 0
0.180059 -0.0339282 0
0.172787 -0.0278243 0
0.181664 -0.0376975 0
0.171953 -0.0356063 0
0.172786 -0.0282707 0
0.182766 -0.0373541 0
0.17214 -0.0359932 0
0.172782 -0.0287677 0
0.172777 -0.0292638 0
0.172387 -0.0365316 0
0.176818 -0.0331307 0
0.17277 -0.0298308 0
0.168138 -0.0356177 0
0.172621 -0.0370775 0
0.172759 -0.0303966 0
0.176989 -0.038371 0
0.179645 -0.0364868 0
0.155188 -0.0321471 0
0.172745 -0.0310591 0
0.150767 -0.0308467 0
0.182133 -0.0400116 0
0.179794 -0.0396419 0
0.172917 -0.0378261 0
0.172726 -0.03172 0
0.180997 -0.039312 0
0.173189 -0.0385878 0
0.172701 -0.0325098 0
0.181694 -0.0408264 0
0 0 0
0.17267 -0.0332973 0
0.176458 -0.036605 0
0.179177 -0.0390115 0
0.173512 -0.0396169 0
0.172627 -0.0342527 0
0.158628 -0.0350077 0
0.179542 -0.0422901 0
0.172578 -0.0352046 0
0.173793 -0.0406676 0
0.161743 -0.0365704 0
0.177305 -0.0422392 0
0.172507 -0.0363696 0
0.168086 -0.0394073 0
0.168182 -0.0395802 0
0.168318 -0.0398368 0
0.164405 -0.0384664 0
0.178543 -0.0420187 0
0.174092 -0.0420646 0
0.180657 -0.0443369 0
0.168509 -0.0402121 0
0.172427 -0.037529 0
0.180185 -0.0445608 0