# vtk DataFile Version 3.0
File generated from DClib
ASCII

DATASET UNSTRUCTURED_GRID
POINTS 1909 float
50 0 0 
48.75 0 0 
50 1.66667 0 
47.5 0 0 
50 3.33333 0 
46.25 0 0 
50 5 0 
45 0 0 
43.75 0 0 
50 6.66667 0 
43 2 0 
42.5 0 0 
50 8.33333 0 
43 4.66667 0 
41.25 0 0 
41.075 2 0 
50 10 0 
40 0 0 
43 7.33333 0 
39.15 2 0 
38.75 0 0 
43 10 0 
37.5 0 0 
37.225 2 0 
36.25 0 0 
36 4 0 
35.3 2 0 
36 5 0 
35 0 0 
35.325 4 0 
36 6 0 
36 7 0 
34.65 4 0 
36 8 0 
33.75 0 0 
33.975 4 0 
36 9 0 
33.375 2 0 
33.3 4 0 
36 10 0 
32.5 0 0 
32.625 4 0 
33 6 0 
31.95 4 0 
33 7.45455 0 
31.45 2 0 
31.25 0 0 
31.95 6 0 
33 8.79545 0 
31.275 4 0 
33 10 0 
30.6 4 0 
30 0 0 
30.9 6 0 
29.925 4 0 
29.525 2 0 
29.85 6 0 
29.25 4 0 
28.75 0 0 
30 8 0 
30 8.45455 0 
28.575 4 0 
29.625 8 0 
30 8.90909 0 
28.8 6 0 
30 9.25 0 
29.782 8.90909 0 
30 9.59091 0 
29.9487 9.59091 0 
29.25 8 0 
29.7462 9.25 0 
30 9.79545 0 
29.897 9.59091 0 
29.564 8.90909 0 
29.9547 9.79545 0 
29.3462 8.45455 0 
29.84 9.59091 0 
30 10 0 
29.8975 9.79545 0 
29.9882 10 0 
29.9902 10.0098 0 
29.7827 9.59091 0 
29.9765 10 0 
29.9804 10.0196 0 
29.9667 10.0098 0 
29.9591 10 0 
29.9686 10.0196 0 
29.9659 10.0341 0 
29.9569 10.0196 0 
29.9418 10 0 
29.9395 10.0196 0 
29.9515 10.0485 0 
29.932 10.0098 0 
29.9424 10.0341 0 
29.8241 9.79545 0 
29.7181 9.59091 0 
29.9166 10 0 
29.9397 10.0485 0 
29.9222 10.0196 0 
29.9279 10.0485 0 
29.9305 10.0695 0 
29.8914 10 0 
29.9077 10.0341 0 
27.9 4 0 
29.897 10.0196 0 
29.9106 10.0485 0 
29.8817 10.0098 0 
29.907 10.0695 0 
29.8933 10.0485 0 
29.9095 10.0905 0 
29.8719 10.0196 0 
27.6 2 0 
29.8556 10 0 
29.8978 10.0905 0 
29.6531 9.59091 0 
29.3437 8.90909 0 
27.5 0 0 
29.8681 10.0485 0 
29.886 10.0905 0 
29.8574 10.0341 0 
29.4839 9.25 0 
29.8723 10.0695 0 
29.7289 9.79545 0 
29.836 10.0196 0 
29.8687 10.0905 0 
29.8197 10 0 
29.8797 10.1203 0 
29.843 10.0485 0 
29.8513 10.0905 0 
29.81 10.0098 0 
29.8561 10.1203 0 
29.8002 10.0196 0 
29.8221 10.0695 0 
29.8072 10.0485 0 
29.8262 10.0905 0 
29.5782 9.59091 0 
29.8498 10.1502 0 
29.7695 10 0 
29.7858 10.0341 0 
29.838 10.1502 0 
29.8215 10.1203 0 
29.8011 10.0905 0 
29.8262 10.1502 0 
29.7714 10.0485 0 
28.875 8 0 
29.75 10.0196 0 
29.8089 10.1502 0 
29.7654 10.0905 0 
29.7193 10 0 
29.7916 10.1502 0 
29.7505 10.0695 0 
29.8079 10.1921 0 
29.7713 10.1203 0 
29.7096 10.0098 0 
29.6047 9.79545 0 
29.503 9.59091 0 
29.7213 10.0485 0 
29.7665 10.1502 0 
29.6999 10.0196 0 
29.7844 10.1921 0 
29.7296 10.0905 0 
29.6856 10.0341 0 
29.7414 10.1502 0 
29.7497 10.1921 0 
29.6503 10 0 
29.7661 10.2339 0 
29.6712 10.0485 0 
29.6999 10.1203 0 
29.7543 10.2339 0 
29.6796 10.0905 0 
29.7057 10.1502 0 
29.7425 10.2339 0 
29.1235 8.90909 0 
29.6309 10.0196 0 
29.6504 10.0695 0 
29.4146 9.59091 0 
29.7252 10.2339 0 
29.6996 10.1921 0 
29.6701 10.1502 0 
29.7079 10.2339 0 
29.6296 10.0905 0 
29.5813 10 0 
29.6023 10.0485 0 
29.5716 10.0098 0 
29.6828 10.2339 0 
29.7086 10.2914 0 
29.2101 9.25 0 
29.562 10.0196 0 
29.6201 10.1502 0 
29.6578 10.2339 0 
29.4428 9.79545 0 
29.5999 10.1203 0 
29.6849 10.2914 0 
29.6283 10.1921 0 
29.5477 10.0341 0 
29.3259 9.59091 0 
29.5608 10.0905 0 
29.5335 10.0485 0 
29.6221 10.2339 0 
29.6503 10.2914 0 
29.5702 10.1502 0 
29.4881 10 0 
29.5128 10.0695 0 
29.6511 10.3489 0 
29.5866 10.2339 0 
29.6392 10.3489 0 
29.4689 10.0196 0 
29.6002 10.2914 0 
29.6273 10.3489 0 
29.4921 10.0905 0 
29.61 10.3489 0 
29.5286 10.1921 0 
29.5016 10.1502 0 
29.5368 10.2339 0 
29.5926 10.3489 0 
29.4405 10.0485 0 
29.2199 9.59091 0 
29.4626 10.1203 0 
29.3949 10 0 
28.9 8.90909 0 
29.5676 10.3489 0 
29.5291 10.2914 0 
29.3853 10.0098 0 
28.6923 8.45455 0 
29.487 10.2339 0 
29.5426 10.3489 0 
29.3758 10.0196 0 
29.5734 10.4266 0 
29.4331 10.1502 0 
29.3993 10.0905 0 
28.5 8 0 
29.3617 10.0341 0 
29.5496 10.4266 0 
29.5071 10.3489 0 
29.2327 9.79545 0 
29.3475 10.0485 0 
29.1136 9.59091 0 
29.4187 10.2339 0 
29.5148 10.4266 0 
29.4716 10.3489 0 
29.3918 10.1921 0 
29.3271 10.0695 0 
29.4298 10.2914 0 
29.2714 10 0 
29.3406 10.1502 0 
28.9208 9.25 0 
29.3066 10.0905 0 
29.4648 10.4266 0 
29.422 10.3489 0 
29.4958 10.5042 0 
29.2524 10.0196 0 
27.75 6 0 
29.3504 10.2339 0 
29.4837 10.5042 0 
29.4718 10.5042 0 
29.2774 10.1203 0 
29.4543 10.5042 0 
29.3724 10.3489 0 
29.2244 10.0485 0 
29.4369 10.5042 0 
29.3938 10.4266 0 
28.9853 9.59091 0 
29.2481 10.1502 0 
28.6766 8.90909 0 
29.4119 10.5042 0 
29.2934 10.2914 0 
27.225 4 0 
29.148 10 0 
29.2582 10.2339 0 
29.1837 10.0905 0 
29.3869 10.5042 0 
29.1385 10.0098 0 
29.3044 10.3489 0 
29.1291 10.0196 0 
29.2072 10.1921 0 
29.3514 10.5042 0 
29.1152 10.0341 0 
29.3929 10.6071 0 
29.2949 10.4266 0 
29.1013 10.0485 0 
29.3686 10.6071 0 
29.316 10.5042 0 
29.2364 10.3489 0 
28.9623 9.79545 0 
29.1257 10.1502 0 
29.1662 10.2339 0 
29.0811 10.0695 0 
28.8566 9.59091 0 
29.3336 10.6071 0 
29.2666 10.5042 0 
29.0609 10.0905 0 
28.9875 10 0 
29.2835 10.6071 0 
29.1448 10.3489 0 
29.0321 10.1203 0 
29.2173 10.5042 0 
29.1098 10.2914 0 
28.125 8 0 
28.9688 10.0196 0 
29.1594 10.4266 0 
28.611 9.25 0 
29.29 10.71 0 
28.4486 8.90909 0 
29.0443 10.2339 0 
29.0033 10.1502 0 
29.2777 10.71 0 
28.9413 10.0485 0 
29.2128 10.6071 0 
29.2655 10.71 0 
29.1497 10.5042 0 
29.2478 10.71 0 
28.7003 9.59091 0 
29.0533 10.3489 0 
29.2303 10.71 0 
28.9629 10.1921 0 
28.9013 10.0905 0 
29.2051 10.71 0 
29.0822 10.5042 0 
29.1801 10.71 0 
28.827 10 0 
29.1144 10.6071 0 
28.8177 10.0098 0 
28.9225 10.2339 0 
28.8085 10.0196 0 
29.1447 10.71 0 
28.7949 10.0341 0 
28.8443 10.1502 0 
28.977 10.4266 0 
28.9322 10.3489 0 
29.1094 10.71 0 
28.7813 10.0485 0 
28.9912 10.5042 0 
29.1562 10.8438 0 
28.5436 9.59091 0 
28.7615 10.0695 0 
28.8669 10.2914 0 
29.1313 10.8438 0 
28.6184 9.79545 0 
29.0602 10.71 0 
28.2207 8.90909 0 
28.7418 10.0905 0 
28.0378 8.45455 0 
28.9798 10.6071 0 
29.0958 10.8438 0 
29.0112 10.71 0 
28.9005 10.5042 0 
28.7136 10.1203 0 
28.7644 10.2339 0 
28.8113 10.3489 0 
29.0454 10.8438 0 
28.6223 10 0 
28.6854 10.1502 0 
28.2746 9.25 0 
28.9441 10.71 0 
28.6042 10.0196 0 
27.75 8 0 
28.9747 10.8438 0 
28.6459 10.1921 0 
28.5773 10.0485 0 
29.0225 10.9775 0 
28.3532 9.59091 0 
28.7804 10.5042 0 
28.736 10.4266 0 
28.8772 10.71 0 
29.0097 10.9775 0 
28.9971 10.9775 0 
28.799 10.6071 0 
28.9791 10.9775 0 
28.5384 10.0905 0 
28.6064 10.2339 0 
28.6543 10.3489 0 
28.9611 10.9775 0 
28.8769 10.8438 0 
27.9867 8.90909 0 
26.25 0 0 
28.9358 10.9775 0 
28.7871 10.71 0 
28.9106 10.9775 0 
28.6607 10.5042 0 
28.4177 10 0 
26.55 4 0 
28.552 10.2914 0 
28.483 10.1502 0 
28.4087 10.0098 0 
28.8751 10.9775 0 
28.3998 10.0196 0 
28.3866 10.0341 0 
28.8399 10.9775 0 
28.6974 10.71 0 
28.3735 10.0485 0 
28.1625 9.59091 0 
28.7436 10.8438 0 
28.4976 10.3489 0 
28.3543 10.0695 0 
28.791 10.9775 0 
28.4052 10.2339 0 
28.3352 10.0905 0 
28.8519 11.1481 0 
28.1869 9.79545 0 
28.5607 10.6071 0 
28.5053 10.5042 0 
28.7423 10.9775 0 
28.8258 11.1481 0 
28.308 10.1203 0 
28.5787 10.71 0 
27.904 9.25 0 
28.7893 11.1481 0 
28.424 10.4266 0 
27.7528 8.90909 0 
28.2807 10.1502 0 
28.6758 10.9775 0 
27.375 8 0 
28.7383 11.1481 0 
28.1619 10 0 
28.5649 10.8438 0 
28.2425 10.1921 0 
28.6096 10.9775 0 
28.1444 10.0196 0 
28.298 10.3489 0 
28.4605 10.71 0 
26.7 6 0 
27.9315 9.59091 0 
28.3503 10.5042 0 
28.6676 11.1481 0 
28.1187 10.0485 0 
28.2042 10.2339 0 
28.5207 10.9775 0 
28.0813 10.0905 0 
28.6814 11.3186 0 
27.3818 8.45455 0 
28.6679 11.3186 0 
28.1516 10.2914 0 
28.5703 11.1481 0 
28.6544 11.3186 0 
28.6358 11.3186 0 
27.5109 8.90909 0 
28.3072 10.71 0 
28.6173 11.3186 0 
28.2524 10.6071 0 
28.4322 10.9775 0 
28.028 10.1502 0 
28.5915 11.3186 0 
28.0989 10.3489 0 
28.33 10.8438 0 
28.5658 11.3186 0 
28.153 10.5042 0 
27.9061 10 0 
27.8975 10.0098 0 
28.5303 11.3186 0 
28.4384 11.1481 0 
27.7002 9.59091 0 
27.889 10.0196 0 
27.8765 10.0341 0 
28.4949 11.3186 0 
28.3154 10.9775 0 
27.9532 10.2339 0 
27.8639 10.0485 0 
28.0276 10.4266 0 
28.1544 10.71 0 
27.8457 10.0695 0 
27.4909 9.25 0 
28.4463 11.3186 0 
27 8 0 
27.8275 10.0905 0 
28.3979 11.3186 0 
27.8015 10.1203 0 
27.6542 9.79545 0 
25.675 2 0 
28.1991 10.9775 0 
27.2691 8.90909 0 
27.9563 10.5042 0 
28.4682 11.5318 0 
28.2625 11.1481 0 
27.7755 10.1502 0 
28.3322 11.3186 0 
27.8502 10.3489 0 
28.4401 11.5318 0 
25.875 4 0 
27.7391 10.1921 0 
28.4019 11.5318 0 
28.0268 10.8438 0 
28.2668 11.3186 0 
27.9602 10.71 0 
28.3498 11.5318 0 
27.4223 9.59091 0 
27.7026 10.2339 0 
27.5927 10 0 
28.0486 10.9775 0 
27.8616 10.6071 0 
27.5762 10.0196 0 
28.1794 11.3186 0 
28.2786 11.5318 0 
27.5519 10.0485 0 
27.6524 10.2914 0 
28.0319 11.1481 0 
27.7108 10.5042 0 
27.5167 10.0905 0 
27.0169 8.90909 0 
28.0924 11.3186 0 
27.6021 10.3489 0 
27.8988 10.9775 0 
28.1818 11.5318 0 
27.7667 10.71 0 
26.625 8 0 
28.255 11.745 0 
27.4664 10.1502 0 
28.2402 11.745 0 
28.2256 11.745 0 
28.2059 11.745 0 
27.978 11.3186 0 
26.7234 8.45455 0 
27.0259 9.25 0 
27.5342 10.4266 0 
28.1863 11.745 0 
27.1442 9.59091 0 
28.0516 11.5318 0 
28.1598 11.745 0 
27.3959 10.2339 0 
28.1334 11.745 0 
27.2793 10 0 
27.2714 10.0098 0 
27.2635 10.0196 0 
27.7086 10.9775 0 
27.6431 10.8438 0 
28.0975 11.745 0 
27.8643 11.3186 0 
27.4661 10.5042 0 
27.2518 10.0341 0 
27.2401 10.0485 0 
28.0617 11.745 0 
26.7648 8.90909 0 
27.5255 10.71 0 
27.7353 11.1481 0 
27.2231 10.0695 0 
28.0133 11.745 0 
27.2061 10.0905 0 
27.8791 11.5318 0 
27.2986 10.3489 0 
27.1818 10.1203 0 
27.9651 11.745 0 
27.3758 10.6071 0 
27.0077 9.79545 0 
27.7174 11.3186 0 
27.1576 10.1502 0 
25 0 0 
27.5193 10.9775 0 
27.9003 11.745 0 
27.1236 10.1921 0 
26.25 8 0 
27.9939 12.0061 0 
25.65 6 0 
27.8359 11.745 0 
26.8136 9.59091 0 
27.0896 10.2339 0 
27.9626 12.0061 0 
27.2853 10.71 0 
25.2 4 0 
27.5713 11.3186 0 
27.9218 12.0061 0 
26.4998 8.90909 0 
27.167 10.5042 0 
27.6541 11.5318 0 
27.0427 10.2914 0 
27.7503 11.745 0 
26.9033 10 0 
27.8677 12.0061 0 
26.8882 10.0196 0 
26.8659 10.0485 0 
26.9958 10.3489 0 
27.2836 10.9775 0 
27.6652 11.745 0 
27.3609 11.1481 0 
27.7955 12.0061 0 
26.499 9.25 0 
[...]
POINT_DATA 1909
SCALARS phi float 1
LOOKUP_TABLE default
VECTORS Displacement float
0 0 0
0 0 0
0 -0.00248246 0
0 0 0
0 -0.0034332 0
0 0 0
0 -0.00296125 0
0 0 0
0 0 0
0 -0.00119745 0
0.00722417 -0.00216458 0
0 0 0
0 0.00174744 0
0.0139056 -0.00120765 0
0 0 0
0.00976874 -0.00212504 0
0 0.005439 0
0 0 0
0.0184329 0.00324543 0
0.0125617 -0.00215992 0
0 0 0
0.0208243 0.0106193 0
0 0 0
0.0155452 -0.00232323 0
0 0 0
0.029449 -0.00144926 0
0.0185516 -0.00261716 0
0.0348178 0.000298208 0
0 0 0
0.0315872 -0.00160278 0
0.0387148 0.00270074 0
0.0412588 0.00566597 0
0.0336836 -0.00179292 0
0.0426647 0.00879072 0
0 0 0
0.035768 -0.002097 0
0.0437449 0.0122716 0
0.0213866 -0.00302329 0
0.0377926 -0.00244536 0
0.044663 0.0170951 0
0 0 0
0.0397126 -0.00286516 0
0.0509344 0.00135698 0
0.0415346 -0.00332781 0
0.0558865 0.00642931 0
0.0238698 -0.00351805 0
0 0 0
0.0551424 -0.000344748 0
0.0582089 0.0131003 0
0.0432153 -0.00384139 0
0.0581065 0.0268686 0
0.0447574 -0.00439271 0
0 0 0
0.058677 -0.00211759 0
0.046144 -0.00498168 0
0.0258521 -0.00408126 0
0.06165 -0.00404339 0
0.047362 -0.00560502 0
0 0 0
0.0722524 0.000359741 0
0.0743173 0.00188411 0
0.0484167 -0.00625331 0
0.0737215 -0.000930941 0
0.0763153 0.00370677 0
0.0640466 -0.00611517 0
0.0777913 0.0067281 0
0.0774724 0.00266699 0
0.0793867 0.0112947 0
0.0796171 0.0102433 0
0.0750278 -0.00226456 0
0.0792161 0.00460807 0
0.080622 0.0153582 0
0.0798606 0.00936699 0
0.0785321 0.00164892 0
0.0809805 0.0144911 0
0.0771042 -0.000747411 0
0.080097 0.00845192 0
0.0817887 0.0213475 0
0.0814309 0.0133759 0
0.0819409 0.0213266 0
0.109708 0.0367157 0
0.0803291 0.00763077 0
0.0820943 0.0212079 0
0.134423 0.0485792 0
0.106825 0.0347241 0
0.0823295 0.0210846 0
0.13124 0.0466279 0
0.137047 0.0475287 0
0.128107 0.0446386 0
0.0825703 0.0208951 0
0.123622 0.0421933 0
0.137158 0.0464546 0
0.103126 0.0321941 0
0.133683 0.0449749 0
0.0820096 0.0120761 0
0.0805922 0.0068354 0
0.082919 0.0205003 0
0.13685 0.0457936 0
0.119792 0.0400565 0
0.136525 0.0452244 0
0.138078 0.0460799 0
0.0832663 0.020082 0
0.127963 0.0421047 0
0.0492857 -0.00693767 0
0.11529 0.0372179 0
0.135527 0.0445279 0
0.0995038 0.0290452 0
0.137593 0.0450039 0
0.133929 0.0435706 0
0.13802 0.0453689 0
0.111584 0.034803 0
0.0272163 -0.00469984 0
0.0837274 0.0192523 0
0.137847 0.0448481 0
0.0808497 0.00610395 0
0.0795216 0.000598285 0
0 0 0
0.131102 0.0417791 0
0.13764 0.0443152 0
0.120506 0.0377385 0
0.0805531 0.00294672 0
0.136236 0.0432156 0
0.0827265 0.0106162 0
0.107519 0.031625 0
0.137328 0.0434612 0
0.084159 0.018442 0
0.138071 0.0444965 0
0.127817 0.039796 0
0.136997 0.0426011 0
0.0963205 0.025167 0
0.137769 0.0433802 0
0.104302 0.0289789 0
0.132394 0.0400518 0
0.123184 0.0367416 0
0.13625 0.0413729 0
0.0811689 0.00538036 0
0.137696 0.0433904 0
0.0846936 0.0171657 0
0.112087 0.0318555 0
0.13756 0.0428181 0
0.137252 0.0416825 0
0.135194 0.0400341 0
0.137421 0.0422396 0
0.118799 0.0339156 0
0.0762827 -0.00360766 0
0.10102 0.0257005 0
0.13719 0.0413809 0
0.133028 0.0380392 0
0.0851578 0.0159575 0
0.136938 0.0405167 0
0.125183 0.0351278 0
0.137187 0.0418243 0
0.136165 0.0391237 0
0.0938475 0.0207704 0
0.0835459 0.00898158 0
0.0814912 0.00471282 0
0.113543 0.0300702 0
0.136557 0.0392442 0
0.0986491 0.0230742 0
0.136929 0.040648 0
0.130136 0.0358341 0
0.104151 0.0252366 0
0.136157 0.0380012 0
0.136525 0.0389177 0
0.085719 0.0144089 0
0.136493 0.0401511 0
0.109109 0.026837 0
0.133099 0.0353133 0
0.136366 0.0395549 0
0.12563 0.0326499 0
0.135437 0.0362884 0
0.136237 0.0389634 0
0.0804255 -0.000457848 0
0.0964484 0.0200426 0
0.115453 0.0284836 0
0.0818959 0.00401529 0
0.136046 0.0381025 0
0.135895 0.036502 0
0.134538 0.0346119 0
0.135856 0.037259 0
0.120949 0.0296023 0
0.0861742 0.0129587 0
0.104434 0.0228776 0
0.092134 0.0162491 0
0.135572 0.0360707 0
0.135519 0.0378533 0
0.0817778 0.00131092 0
0.0949609 0.0176003 0
0.132597 0.0323752 0
0.135283 0.0349247 0
0.0843991 0.00712051 0
0.126113 0.029994 0
0.135291 0.0366978 0
0.134825 0.0333017 0
0.0980846 0.0188346 0
0.0823019 0.00335182 0
0.115088 0.0255925 0
0.101036 0.0198202 0
0.134861 0.033351 0
0.134954 0.0350701 0
0.129879 0.0300215 0
0.0867233 0.0113296 0
0.10562 0.0211914 0
0.134466 0.0355854 0
0.134428 0.0318696 0
0.134359 0.0350253 0
0.0935795 0.0148988 0
0.134468 0.0328635 0
0.134253 0.0344781 0
0.109982 0.0222341 0
0.134099 0.0336945 0
0.132055 0.0291179 0
0.12536 0.0268631 0
0.133717 0.0299128 0
0.133947 0.0329355 0
0.0979198 0.0164008 0
0.0827992 0.0026119 0
0.115561 0.0232303 0
0.0871581 0.00980399 0
0.0812788 -0.00152943 0
0.133731 0.0318767 0
0.133785 0.030021 0
0.0908148 0.0117864 0
0.0793777 -0.00343537 0
0.132865 0.0280901 0
0.133521 0.0308646 0
0.0925825 0.0126021 0
0.133125 0.0327008 0
0.120382 0.0238048 0
0.104692 0.01819 0
0.077377 -0.00499098 0
0.0942733 0.0132283 0
0.132937 0.0316747 0
0.133226 0.0294984 0
0.0852364 0.00497156 0
0.09587 0.013753 0
0.0832926 0.0018947 0
0.130959 0.0257808 0
0.13267 0.0302548 0
0.132938 0.0282134 0
0.124963 0.0237514 0
0.0983408 0.0144936 0
0.132746 0.0265499 0
0.087654 0.00813155 0
0.114099 0.0198851 0
0.082903 -0.000394029 0
0.100893 0.0151497 0
0.132302 0.0283582 0
0.13253 0.0265253 0
0.131766 0.0299906 0
0.0915378 0.0100693 0
0.065828 -0.00829347 0
0.12818 0.0234093 0
0.131684 0.029512 0
0.131603 0.029046 0
0.104789 0.0160171 0
0.131487 0.0283835 0
0.132113 0.0249625 0
0.0940964 0.0109208 0
0.131374 0.0277437 0
0.131809 0.0259268 0
0.0838739 0.00105855 0
0.108628 0.0166579 0
0.0820534 -0.0026155 0
0.131214 0.0268553 0
0.130031 0.0222996 0
0.0499857 -0.00763322 0
0.0880517 0.0065508 0
0.123414 0.0203657 0
0.0976012 0.0117772 0
0.13106 0.026006 0
0.0896939 0.00738221 0
0.131433 0.02295 0
0.0907724 0.0078437 0
0.113627 0.0172077 0
0.130847 0.0248573 0
0.091883 0.00822755 0
0.13018 0.0267586 0
0.131165 0.0229386 0
0.0928515 0.00851455 0
0.130034 0.0259031 0
0.130644 0.0237712 0
0.130576 0.0211034 0
0.0860679 0.00248807 0
0.103247 0.0127847 0
0.118019 0.0174035 0
0.0941758 0.00885781 0
0.0844384 0.000239156 0
0.129831 0.0247297 0
0.130371 0.0223454 0
0.0954789 0.00915268 0
0.0884131 0.00471751 0
0.129554 0.0231623 0
0.128529 0.0188145 0
0.0974429 0.00954554 0
0.130113 0.0210135 0
0.122362 0.0170545 0
0.0783647 -0.00638436 0
0.0900238 0.0054143 0
0.130209 0.0194188 0
0.0839669 -0.00216454 0
0.128631 0.0237982 0
0.0827465 -0.00373928 0
0.111443 0.013646 0
0.0995344 0.00990138 0
0.128569 0.0234069 0
0.0917214 0.00594376 0
0.129193 0.021139 0
0.128509 0.0230254 0
0.129757 0.0193074 0
0.128424 0.0224863 0
0.0850818 -0.000736857 0
0.125412 0.0164587 0
0.128341 0.0219638 0
0.102698 0.0103402 0
0.0937433 0.0063718 0
0.128224 0.0212394 0
0.12939 0.0177237 0
0.12811 0.0205428 0
0.088713 0.00298623 0
0.128737 0.0186195 0
0.0891915 0.00316257 0
0.105952 0.0106347 0
0.0896698 0.00332369 0
0.127953 0.019597 0
0.0903031 0.00350269 0
0.0965483 0.00673809 0
0.127261 0.0151851 0
0.120146 0.0135108 0
0.127801 0.0186954 0
0.0909266 0.00365896 0
0.128727 0.0157089 0
0.126892 0.0203935 0
0.0856881 -0.00169899 0
0.0917734 0.00383435 0
0.110317 0.010803 0
0.126782 0.0196911 0
0.0869869 -0.00031592 0
0.127597 0.0175001 0
0.0833679 -0.00485864 0
0.092558 0.00395974 0
0.0811176 -0.00622396 0
0.128177 0.015576 0
0.126629 0.018733 0
0.127404 0.0163691 0
0.127769 0.0138498 0
0.093627 0.00408949 0
0.100989 0.00705443 0
0.114313 0.0106779 0
0.12642 0.0174494 0
0.0889477 0.000965379 0
0.0946654 0.00417693 0
0.0849791 -0.00401793 0
0.127156 0.0149093 0
0.0894657 0.00107412 0
0.0791814 -0.00779256 0
0.126144 0.0157734 0
0.0961764 0.0042717 0
0.0903104 0.00123335 0
0.125225 0.0172873 0
0.0863473 -0.00285555 0
0.125335 0.0115869 0
0.118514 0.010069 0
0.12693 0.0135408 0
0.125179 0.0169639 0
0.125134 0.0166478 0
0.127284 0.0120227 0
0.12507 0.0162059 0
0.091555 0.00141196 0
0.0977748 0.00433904 0
0.107742 0.00712038 0
0.125008 0.0157757 0
0.125793 0.0136492 0
0.0839218 -0.00599977 0
0 0 0
0.12492 0.0151813 0
0.126629 0.0118153 0
0.124835 0.0146057 0
0.121592 0.00923688 0
0.0891777 -0.000921708 0
0.0504912 -0.0083725 0
0.10016 0.00438572 0
0.093188 0.00151074 0
0.0893414 -0.000918529 0
0.124715 0.0138233 0
0.0895169 -0.000910994 0
0.0897869 -0.000898774 0
0.124599 0.0130706 0
0.126312 0.0102014 0
0.0900806 -0.000879622 0
0.0869466 -0.00399664 0
0.125366 0.0110406 0
0.102714 0.00435259 0
0.0905225 -0.000855285 0
0.124441 0.0120672 0
0.0953776 0.00145506 0
0.0909864 -0.000831572 0
0.123348 0.0137502 0
0.0881089 -0.00338273 0
0.123674 0.00778425 0
0.115706 0.00637037 0
0.124289 0.0111089 0
0.123264 0.0131559 0
0.0916298 -0.000824109 0
0.125586 0.00817683 0
0.0859167 -0.0060024 0
0.123148 0.0123549 0
0.106253 0.00415718 0
0.0844091 -0.00712926 0
0.0922577 -0.000840428 0
0.124087 0.00985923 0
0.0798659 -0.0091974 0
0.12299 0.0112847 0
0.0895767 -0.00297453 0
0.124876 0.00791871 0
0.0931049 -0.000901416 0
0.123896 0.00867303 0
0.0897543 -0.00304392 0
0.0986506 0.00117733 0
0.124348 0.00630058 0
0.0669767 -0.0105481 0
0.0875512 -0.0053654 0
0.109708 0.00374248 0
0.122778 0.00987967 0
0.0900971 -0.00311386 0
0.0939206 -0.000998444 0
0.123662 0.00716746 0
0.0906837 -0.00319171 0
0.121561 0.0104965 0
0.0823702 -0.00901613 0
0.121525 0.0102165 0
0.0950549 -0.00116412 0
0.122502 0.0080791 0
0.12149 0.00994201 0
0.121441 0.00956648 0
0.0848457 -0.00828375 0
0.121253 0.00410364 0
0.121393 0.00919947 0
0.113617 0.00289023 0
0.123459 0.00575469 0
0.0915989 -0.00330505 0
0.121326 0.00869848 0
0.0962088 -0.00136067 0
0.123924 0.00432677 0
0.12126 0.0082109 0
0.103724 0.0005102 0
0.0899782 -0.00487386 0
0.0900565 -0.00491515 0
0.121169 0.00755178 0
0.122158 0.00583789 0
0.0880711 -0.00671212 0
0.0901357 -0.00495618 0
0.0902472 -0.00501879 0
0.12108 0.00691393 0
0.123192 0.00400898 0
0.0928629 -0.00353269 0
0.0903627 -0.00508025 0
0.0978816 -0.00165874 0
0.116731 0.00183108 0
0.0905541 -0.00515911 0
0.0867384 -0.00816784 0
0.120958 0.00606546 0
0.08039 -0.0106014 0
0.0907542 -0.005236 0
0.12084 0.00525025 0
0.0910705 -0.00533511 0
0.089274 -0.00678224 0
0.0278663 -0.00536367 0
0.122888 0.00238481 0
0.0852135 -0.00942823 0
0.0996892 -0.00199796 0
0.119521 0.00679629 0
0.121753 0.00314357 0
0.0914022 -0.00543322 0
0.120684 0.00418753 0
0.0945348 -0.00396903 0
0.119456 0.00626758 0
0.0508221 -0.00910585 0
0.0918756 -0.00557809 0
0.119368 0.00557252 0
0.119168 0.000206282 0
0.120535 0.00317588 0
0.110463 -0.000870672 0
0.119249 0.00465785 0
0.0885791 -0.0082956 0
0.092351 -0.00573305 0
0.0905551 -0.00694403 0
0.12194 0.000413682 0
0.10226 -0.00252524 0
0.0906809 -0.00703642 0
0.120345 0.00188785 0
0.119091 0.00346687 0
0.0908705 -0.00717308 0
0.0929933 -0.00597213 0
0.12132 6.79035e-06 0
0.0968504 -0.00472154 0
0.0911618 -0.00736748 0
0.0855312 -0.0106096 0
0.120168 0.000671663 0
0.093625 -0.00623309 0
0.120205 -0.00141279 0
0.118886 0.00194597 0
0.104957 -0.00318586 0
0.0807941 -0.0120009 0
0.117597 0.00337206 0
0.0916015 -0.00764455 0
0.117568 0.00311754 0
0.11754 0.00286805 0
0.117502 0.00253752 0
0.119966 -0.000833986 0
0.0831862 -0.0117774 0
0.0873946 -0.010556 0
0.0944609 -0.00662261 0
0.117464 0.00221437 0
0.0889735 -0.00985486 0
0.118629 5.38388e-05 0
0.117413 0.00178356 0
0.0922546 -0.00803844 0
0.117363 0.00136408 0
0.0909754 -0.00893965 0
0.0910397 -0.0089862 0
0.0911038 -0.00903296 0
0.116292 -0.00342971 0
0.10826 -0.00423193 0
0.117295 0.000806205 0
0.119791 -0.00224258 0
0.0952884 -0.00704111 0
0.0911955 -0.00910215 0
0.0912866 -0.00917174 0
0.117229 0.000265954 0
0.0857778 -0.011782 0
0.100309 -0.00596432 0
0.120095 -0.00349381 0
0.0914173 -0.00927301 0
0.11714 -0.000445293 0
0.0915473 -0.00937517 0
0.118327 -0.00222897 0
0.0931437 -0.00862188 0
0.0917318 -0.00952166 0
0.117055 -0.00112943 0
0.0964121 -0.00763175 0
0.0901848 -0.0105998 0
0.119509 -0.00394326 0
0.0919157 -0.00966978 0
0 0 0
0.11122 -0.00547173 0
0.116945 -0.00201528 0
0.0921752 -0.00988053 0
0.0810578 -0.0133955 0
0.115413 -0.000467366 0
0.0674924 -0.0128617 0
0.116841 -0.00286088 0
0.0893239 -0.0116678 0
0.0924332 -0.0100956 0
0.115363 -0.000953523 0
0.0975787 -0.00825531 0
0.0509531 -0.009896 0
0.119166 -0.00549795 0
0.115299 -0.00156762 0
0.0859706 -0.0130031 0
0.094339 -0.0094707 0
0.117999 -0.00489454 0
0.0927873 -0.0104003 0
0.116712 -0.00393336 0
0.091347 -0.0112068 0
0.115215 -0.0023519 0
0.0914574 -0.0112996 0
0.0916212 -0.011438 0
0.0931321 -0.0107147 0
0.105327 -0.00794596 0
0.116592 -0.00494926 0
0.113873 -0.00724715 0
0.115108 -0.00335214 0
0.0878365 -0.013199 0
0.0918579 -0.0116416 0
0.0992234 -0.00911045 0
0.117837 -0.00730485 0
0.0935811 -0.0111554 0
0.114973 -0.00461303 0
0.116452 -0.00621 0
0.0921916 -0.0119382 0
0.0959143 -0.0106999 0
0.0860923 -0.0142148 0
0.0835944 -0.0145183 0
0.089548 -0.0134514 0
0.117582 -0.00790551 0
0.0940138 -0.0116117 0
0.0812131 -0.0147882 0
0.113307 -0.00401936 0
0.0926474 -0.012367 0
0.116323 -0.00739787 0
0.113286 -0.00425387 0
0.11481 -0.00617284 0
0.101017 -0.0100362 0
0.113266 -0.00448366 0
0.115363 -0.00902417 0
0.113241 -0.00477545 0
0.113217 -0.00506072 0
0.113185 -0.00542844 0
0.0915614 -0.0134129 0
0.0945838 -0.0122326 0
0.0916129 -0.0134601 0
0.0916644 -0.0135074 0
0.113154 -0.00578684 0
0.091739 -0.0135776 0
0.093247 -0.0129842 0
0.116157 -0.00884451 0
0.0918134 -0.0136482 0
0.113114 -0.00625131 0
0.0919202 -0.0137513 0
0.114619 -0.00806168 0
0.113075 -0.00670223 0
0.0920262 -0.0138554 0
0.092176 -0.0140052 0
0.0861541 -0.0154867 0
0.0951411 -0.0128711 0
0.113025 -0.00728535 0
0.103403 -0.0113168 0
0.110807 -0.0109108 0
0.0923238 -0.0141571 0
0.115989 -0.0102194 0
0.112978 -0.00784878 0
0.098051 -0.0124676 0
0.0906402 -0.014912 0
0.0925282 -0.0143731 0
0.115806 -0.0112583 0
0.0940021 -0.0138671 0
0.112918 -0.00857224 0
0.0896716 -0.0154984 0
0.0927284 -0.0145929 0
0.0812446 -0.0161748 0
0.114396 -0.0103044 0
0.0509043 -0.010656 0
0.112862 -0.00926814 0
0.095873 -0.0137181 0
0.0879939 -0.0161302 0
0.0929974 -0.0149016 0
0.115636 -0.011873 0
0.110977 -0.00788143 0
0.105848 -0.0127565 0
0.112789 -0.0101514 0
0.110947 -0.00833479 0
0.0932585 -0.0152173 0
0.0861449 -0.0167484 0
0.11091 -0.00888228 0
0.0916281 -0.0159507 0
0.0917179 -0.0160474 0
0.112719 -0.0109999 0
0.0965793 -0.0145923 0
0.0948926 -0.0151175 0
0.110864 -0.00955695 0
0.0918494 -0.0161914 0
0.093597 -0.0156551 0
0.115128 -0.0133998 0
0.0920372 -0.0164031 0
0.0836232 -0.0172453 0
0.114108 -0.0129426 0
0.110808 -0.0103974 0
0.112638 -0.0120616 0
0.093918 -0.0161057 0
0.0922982 -0.0167107 0
0.0673838 -0.0152215 0
0.101141 -0.0150174 0
0.0896373 -0.0175161 0
0.110741 -0.0114455 0
0.108301 -0.0147327 0
0.0811737 -0.0175583 0
0.112551 -0.0130865 0
0.0974794 -0.0157555 0
0.0926507 -0.0171529 0
0.094319 -0.0167199 0
0.0860598 -0.018083 0
0.113273 -0.0151107 0
0.110657 -0.0127454 0
0 0 0
0.112434 -0.0143568 0
0.095912 -0.0168557 0
0.108646 -0.0114927 0
0.0931101 -0.0177827 0
0.0946883 -0.0173545 0
0.108636 -0.0117147 0
0.108627 -0.0119329 0
0.0277218 -0.00605336 0
0.0914933 -0.0184308 0
0.108616 -0.0121972 0
0.113566 -0.0159781 0
0.0915336 -0.0184801 0
0.0915738 -0.0185296 0
0.108606 -0.0124567 0
0.0983748 -0.0169751 0
0.0916325 -0.0186028 0
0.110554 -0.0143479 0
0.112297 -0.0155834 0
0.108592 -0.0127789 0
0.0916908 -0.0186764 0
0.110029 -0.0167854 0
0.0917745 -0.0187838 0
0.10858 -0.0130946 0
0.0918573 -0.0188919 0
0.0951243 -0.0182081 0
0.108563 -0.0134929 0
0.0936803 -0.0186721 0
0.0919737 -0.0190473 0
0.0877703 -0.0193768 0
0.0506491 -0.011488 0
0.108547 -0.0138827 0
0.0859033 -0.0194077 0
0.0920884 -0.0192041 0
0.0809926 -0.0189337 0
0.108528 -0.0143771 0
0.0922458 -0.0194263 0
0.112085 -0.0170793 0
0.0894246 -0.0198006 0
0.0903991 -0.0197544 0
0.108509 -0.0148615 0
0.0923996 -0.0196514 0
0.110401 -0.0163166 0
0.0955111 -0.0190933 0
0.108487 -0.0154769 0
0.0996226 -0.0185724 0
0.0926051 -0.0199655 0
0.105193 -0.0186115 0
0.0832977 -0.0199603 0
0.0943452 -0.0199162 0
0.096997 -0.0192464 0
0.108463 -0.0160811 0
0.0928036 -0.0202851 0
0.111854 -0.0185308 0
0.110885 -0.0193608 0
0.108428 -0.0168503 0
0.0930595 -0.0207252 0
0.0959391 -0.0202684 0
0.08565 -0.0208155 0
0.106061 -0.0154046 0
0.110153 -0.0187089 0
0.0911201 -0.0212209 0
0.108386 -0.0176065 0
0.106048 -0.0158561 0
0.0911906 -0.021321 0
0.0933026 -0.0211747 0
0.0912933 -0.0214697 0
0.0807148 -0.0203039 0
0.106033 -0.016381 0
0.111301 -0.0202538 0
0.100992 -0.0203282 0
0.0914395 -0.0216875 0
0.108323 -0.0185623 0
0.106015 -0.0170077 0
0.0936031 -0.0217848 0
0.095047 -0.0216361 0
0.0916424 -0.0220025 0
0.0890268 -0.0220479 0
0.0962811 -0.0214924 0
0.105994 -0.0177713 0
0.10825 -0.0195001 0
0.091915 -0.0224524 0
0.0938795 -0.0224108 0
0.110419 -0.021851 0
0.105964 -0.0187183 0
0.0853237 -0.0222122 0
0.109747 -0.0215574 0
0.108143 -0.0206695 0
0.0922674 -0.0230877 0
0.0502135 -0.0122546 0
0.0666639 -0.0176094 0
0.0980761 -0.0225702 0
0.0942015 -0.023248 0
0.0870477 -0.0229515 0
0.105917 -0.0199024 0
0.102524 -0.0226562 0
0.0965859 -0.023083 0
0.0803392 -0.0216636 0
0.10802 -0.0218117 0
0.0927009 -0.0239756 0
0.107781 -0.0235112 0
0.0905232 -0.023938 0
0.103406 -0.019197 0
0.0905551 -0.0239887 0
0.0905868 -0.0240395 0
0.0944814 -0.0241102 0
0.0826332 -0.0226655 0
0.103403 -0.0194326 0
0.0956654 -0.0239827 0
0.0906333 -0.0241147 0
0.105838 -0.0213829 0
0.0906794 -0.0241901 0
0.103401 -0.0196655 0
0.0907456 -0.0243 0
0.103399 -0.0199346 0
0.090811 -0.0244104 0
0.107841 -0.02321 0
0.103397 -0.0202009 0
0.0909028 -0.0245687 0
0.103395 -0.0205175 0
0.0909929 -0.0247282 0
0.0848825 -0.0236982 0
0.103393 -0.0208315 0
0.0883818 -0.024541 0
0.0967513 -0.0247176 0
0.0911163 -0.0249534 0
0.108897 -0.0248204 0
0.103388 -0.0212149 0
0.0931979 -0.0252039 0
0.0912364 -0.0251809 0
0.0947743 -0.0252436 0
0.105704 -0.0232165 0
0.103381 -0.0215953 0
0.107633 -0.0245661 0
0.103922 -0.0251466 0
0.0892363 -0.0250609 0
0 0 0
0.0913962 -0.0254974 0
0.10337 -0.0220676 0
0.0798727 -0.0230154 0
0.0915498 -0.0258181 0
0.103358 -0.022536 0
0.103338 -0.0231225 0
0.0917472 -0.0262577 0
0.0949967 -0.0264115 0
0.107327 -0.0261927 0
0.103315 -0.0237033 0
0.10548 -0.0254498 0
0.091933 -0.0267051 0
0.0937086 -0.026885 0
0.096873 -0.0267848 0
0.0843632 -0.0251699 0
0.10328 -0.0244319 0
0.0995787 -0.027064 0
0.0960162 -0.0271125 0
0.0495613 -0.0131016 0
0.092161 -0.0273094 0
0.0896154 -0.0269196 0
0.10324 -0.0251513 0
0.0896728 -0.0270218 0
0.106997 -0.0277749 0
0.0897562 -0.0271733 0
0.100356 -0.023445 0
0.0951769 -0.0279218 0
0.104708 -0.0282274 0
0.0898744 -0.0273949 0
0.0923682 -0.0279269 0
0.10318 -0.0260494 0
0.100355 -0.0239528 0
0.0875367 -0.0269801 0
0.0793201 -0.0243529 0
0.0900376 -0.0277141 0
0.100352 -0.024524 0
0.0816407 -0.0253587 0
0.105115 -0.0281162 0
0.085711 -0.026833 0
0.103112 -0.0269332 0
0.0902557 -0.0281681 0
0.0926057 -0.0287488 0
0.100345 -0.0251855 0
0.0969659 -0.0289112 0
0.0941345 -0.0291578 0
0.106059 -0.0295715 0
0.100331 -0.0259706 0
0.0905353 -0.0288056 0
0.083708 -0.0267323 0
0.0952401 -0.0294894 0
0.103012 -0.0280255 0
0.092807 -0.0295921 0
0.0653494 -0.0199856 0
0.100306 -0.0269193 0
0.102899 -0.0290969 0
0.0908751 -0.0296903 0
0.0267418 -0.00672585 0
0.104462 -0.0312167 0
0.100261 -0.0280772 0
0.078682 -0.0256777 0
0.0930109 -0.0306976 0
0.104537 -0.0312267 0
0.102736 -0.0304011 0
0.0958094 -0.0311883 0
0.0884703 -0.0298018 0
0.0884964 -0.0298534 0
0.0885223 -0.029905 0
0.0885607 -0.0299814 0
0.0951519 -0.0314758 0
0.0885986 -0.0300579 0
0.0912572 -0.0309043 0
0.0971898 -0.0315189 0
0.0886534 -0.0301692 0
0.100184 -0.0294949 0
0.0887073 -0.030281 0
0.0887831 -0.030441 0
0.0863919 -0.0296174 0
0.0829756 -0.0282715 0
0.0972081 -0.0276903 0
0.0931532 -0.0318374 0
0.0888575 -0.030602 0
0.048742 -0.0138392 0
0.102553 -0.0316757 0
0.0972091 -0.027968 0
0.0942811 -0.0321908 0
0.088959 -0.0308288 0
0.0972093 -0.0282447 0
0.10102 -0.0327908 0
0.0890575 -0.0310573 0
0.0972086 -0.0285522 0
0.0972069 -0.0288585 0
0.0891882 -0.0313745 0
0.100056 -0.0312237 0
0.0972039 -0.0292077 0
0.0869895 -0.0306883 0
0.0893133 -0.031695 0
0.0971996 -0.0295555 0
0.0916348 -0.0325514 0
0.102297 -0.0331998 0
0.0803322 -0.0280275 0
0.097193 -0.0299615 0
0.0779688 -0.0269798 0