# vtk DataFile Version 3.0
File generated from DClib
ASCII

DATASET UNSTRUCTURED_GRID
POINTS 1909 float
50 0 0 
48.75 0 0 
50 1.66667 0 
47.5 0 0 
50 3.33333 0 
46.25 0 0 
50 5 0 
45 0 0 
43.75 0 0 
50 6.66667 0 
43 2 0 
42.5 0 0 
50 8.33333 0 
43 4.66667 0 
41.25 0 0 
41.075 2 0 
50 10 0 
40 0 0 
43 7.33333 0 
39.15 2 0 
38.75 0 0 
43 10 0 
37.5 0 0 
37.225 2 0 
36.25 0 0 
36 4 0 
35.3 2 0 
36 5 0 
35 0 0 
35.325 4 0 
36 6 0 
36 7 0 
34.65 4 0 
36 8 0 
33.75 0 0 
33.975 4 0 
36 9 0 
33.375 2 0 
33.3 4 0 
36 10 0 
32.5 0 0 
32.625 4 0 
33 6 0 
31.95 4 0 
33 7.45455 0 
31.45 2 0 
31.25 0 0 
31.95 6 0 
33 8.79545 0 
31.275 4 0 
33 10 0 
30.6 4 0 
30 0 0 
30.9 6 0 
29.925 4 0 
29.525 2 0 
29.85 6 0 
29.25 4 0 
28.75 0 0 
30 8 0 
30 8.45455 0 
28.575 4 0 
29.625 8 0 
30 8.90909 0 
28.8 6 0 
30 9.25 0 
29.782 8.90909 0 
30 9.59091 0 
29.9487 9.59091 0 
29.25 8 0 
29.7462 9.25 0 
30 9.79545 0 
29.897 9.59091 0 
29.564 8.90909 0 
29.9547 9.79545 0 
29.3462 8.45455 0 
29.84 9.59091 0 
30 10 0 
29.8975 9.79545 0 
29.9882 10 0 
29.9902 10.0098 0 
29.7827 9.59091 0 
29.9765 10 0 
29.9804 10.0196 0 
29.9667 10.0098 0 
29.9591 10 0 
29.9686 10.0196 0 
29.9659 10.0341 0 
29.9569 10.0196 0 
29.9418 10 0 
29.9395 10.0196 0 
29.9515 10.0485 0 
29.932 10.0098 0 
29.9424 10.0341 0 
29.8241 9.79545 0 
29.7181 9.59091 0 
29.9166 10 0 
29.9397 10.0485 0 
29.9222 10.0196 0 
29.9279 10.0485 0 
29.9305 10.0695 0 
29.8914 10 0 
29.9077 10.0341 0 
27.9 4 0 
29.897 10.0196 0 
29.9106 10.0485 0 
29.8817 10.0098 0 
29.907 10.0695 0 
29.8933 10.0485 0 
29.9095 10.0905 0 
29.8719 10.0196 0 
27.6 2 0 
29.8556 10 0 
29.8978 10.0905 0 
29.6531 9.59091 0 
29.3437 8.90909 0 
27.5 0 0 
29.8681 10.0485 0 
29.886 10.0905 0 
29.8574 10.0341 0 
29.4839 9.25 0 
29.8723 10.0695 0 
29.7289 9.79545 0 
29.836 10.0196 0 
29.8687 10.0905 0 
29.8197 10 0 
29.8797 10.1203 0 
29.843 10.0485 0 
29.8513 10.0905 0 
29.81 10.0098 0 
29.8561 10.1203 0 
29.8002 10.0196 0 
29.8221 10.0695 0 
29.8072 10.0485 0 
29.8262 10.0905 0 
29.5782 9.59091 0 
29.8498 10.1502 0 
29.7695 10 0 
29.7858 10.0341 0 
29.838 10.1502 0 
29.8215 10.1203 0 
29.8011 10.0905 0 
29.8262 10.1502 0 
29.7714 10.0485 0 
28.875 8 0 
29.75 10.0196 0 
29.8089 10.1502 0 
29.7654 10.0905 0 
29.7193 10 0 
29.7916 10.1502 0 
29.7505 10.0695 0 
29.8079 10.1921 0 
29.7713 10.1203 0 
29.7096 10.0098 0 
29.6047 9.79545 0 
29.503 9.59091 0 
29.7213 10.0485 0 
29.7665 10.1502 0 
29.6999 10.0196 0 
29.7844 10.1921 0 
29.7296 10.0905 0 
29.6856 10.0341 0 
29.7414 10.1502 0 
29.7497 10.1921 0 
29.6503 10 0 
29.7661 10.2339 0 
29.6712 10.0485 0 
29.6999 10.1203 0 
29.7543 10.2339 0 
29.6796 10.0905 0 
29.7057 10.1502 0 
29.7425 10.2339 0 
29.1235 8.90909 0 
29.6309 10.0196 0 
29.6504 10.0695 0 
29.4146 9.59091 0 
29.7252 10.2339 0 
29.6996 10.1921 0 
29.6701 10.1502 0 
29.7079 10.2339 0 
29.6296 10.0905 0 
29.5813 10 0 
29.6023 10.0485 0 
29.5716 10.0098 0 
29.6828 10.2339 0 
29.7086 10.2914 0 
29.2101 9.25 0 
29.562 10.0196 0 
29.6201 10.1502 0 
29.6578 10.2339 0 
29.4428 9.79545 0 
29.5999 10.1203 0 
29.6849 10.2914 0 
29.6283 10.1921 0 
29.5477 10.0341 0 
29.3259 9.59091 0 
29.5608 10.0905 0 
29.5335 10.0485 0 
29.6221 10.2339 0 
29.6503 10.2914 0 
29.5702 10.1502 0 
29.4881 10 0 
29.5128 10.0695 0 
29.6511 10.3489 0 
29.5866 10.2339 0 
29.6392 10.3489 0 
29.4689 10.0196 0 
29.6002 10.2914 0 
29.6273 10.3489 0 
29.4921 10.0905 0 
29.61 10.3489 0 
29.5286 10.1921 0 
29.5016 10.1502 0 
29.5368 10.2339 0 
29.5926 10.3489 0 
29.4405 10.0485 0 
29.2199 9.59091 0 
29.4626 10.1203 0 
29.3949 10 0 
28.9 8.90909 0 
29.5676 10.3489 0 
29.5291 10.2914 0 
29.3853 10.0098 0 
28.6923 8.45455 0 
29.487 10.2339 0 
29.5426 10.3489 0 
29.3758 10.0196 0 
29.5734 10.4266 0 
29.4331 10.1502 0 
29.3993 10.0905 0 
28.5 8 0 
29.3617 10.0341 0 
29.5496 10.4266 0 
29.5071 10.3489 0 
29.2327 9.79545 0 
29.3475 10.0485 0 
29.1136 9.59091 0 
29.4187 10.2339 0 
29.5148 10.4266 0 
29.4716 10.3489 0 
29.3918 10.1921 0 
29.3271 10.0695 0 
29.4298 10.2914 0 
29.2714 10 0 
29.3406 10.1502 0 
28.9208 9.25 0 
29.3066 10.0905 0 
29.4648 10.4266 0 
29.422 10.3489 0 
29.4958 10.5042 0 
29.2524 10.0196 0 
27.75 6 0 
29.3504 10.2339 0 
29.4837 10.5042 0 
29.4718 10.5042 0 
29.2774 10.1203 0 
29.4543 10.5042 0 
29.3724 10.3489 0 
29.2244 10.0485 0 
29.4369 10.5042 0 
29.3938 10.4266 0 
28.9853 9.59091 0 
29.2481 10.1502 0 
28.6766 8.90909 0 
29.4119 10.5042 0 
29.2934 10.2914 0 
27.225 4 0 
29.148 10 0 
29.2582 10.2339 0 
29.1837 10.0905 0 
29.3869 10.5042 0 
29.1385 10.0098 0 
29.3044 10.3489 0 
29.1291 10.0196 0 
29.2072 10.1921 0 
29.3514 10.5042 0 
29.1152 10.0341 0 
29.3929 10.6071 0 
29.2949 10.4266 0 
29.1013 10.0485 0 
29.3686 10.6071 0 
29.316 10.5042 0 
29.2364 10.3489 0 
28.9623 9.79545 0 
29.1257 10.1502 0 
29.1662 10.2339 0 
29.0811 10.0695 0 
28.8566 9.59091 0 
29.3336 10.6071 0 
29.2666 10.5042 0 
29.0609 10.0905 0 
28.9875 10 0 
29.2835 10.6071 0 
29.1448 10.3489 0 
29.0321 10.1203 0 
29.2173 10.5042 0 
29.1098 10.2914 0 
28.125 8 0 
28.9688 10.0196 0 
29.1594 10.4266 0 
28.611 9.25 0 
29.29 10.71 0 
28.4486 8.90909 0 
29.0443 10.2339 0 
29.0033 10.1502 0 
29.2777 10.71 0 
28.9413 10.0485 0 
29.2128 10.6071 0 
29.2655 10.71 0 
29.1497 10.5042 0 
29.2478 10.71 0 
28.7003 9.59091 0 
29.0533 10.3489 0 
29.2303 10.71 0 
28.9629 10.1921 0 
28.9013 10.0905 0 
29.2051 10.71 0 
29.0822 10.5042 0 
29.1801 10.71 0 
28.827 10 0 
29.1144 10.6071 0 
28.8177 10.0098 0 
28.9225 10.2339 0 
28.8085 10.0196 0 
29.1447 10.71 0 
28.7949 10.0341 0 
28.8443 10.1502 0 
28.977 10.4266 0 
28.9322 10.3489 0 
29.1094 10.71 0 
28.7813 10.0485 0 
28.9912 10.5042 0 
29.1562 10.8438 0 
28.5436 9.59091 0 
28.7615 10.0695 0 
28.8669 10.2914 0 
29.1313 10.8438 0 
28.6184 9.79545 0 
29.0602 10.71 0 
28.2207 8.90909 0 
28.7418 10.0905 0 
28.0378 8.45455 0 
28.9798 10.6071 0 
29.0958 10.8438 0 
29.0112 10.71 0 
28.9005 10.5042 0 
28.7136 10.1203 0 
28.7644 10.2339 0 
28.8113 10.3489 0 
29.0454 10.8438 0 
28.6223 10 0 
28.6854 10.1502 0 
28.2746 9.25 0 
28.9441 10.71 0 
28.6042 10.0196 0 
27.75 8 0 
28.9747 10.8438 0 
28.6459 10.1921 0 
28.5773 10.0485 0 
29.0225 10.9775 0 
28.3532 9.59091 0 
28.7804 10.5042 0 
28.736 10.4266 0 
28.8772 10.71 0 
29.0097 10.9775 0 
28.9971 10.9775 0 
28.799 10.6071 0 
28.9791 10.9775 0 
28.5384 10.0905 0 
28.6064 10.2339 0 
28.6543 10.3489 0 
28.9611 10.9775 0 
28.8769 10.8438 0 
27.9867 8.90909 0 
26.25 0 0 
28.9358 10.9775 0 
28.7871 10.71 0 
28.9106 10.9775 0 
28.6607 10.5042 0 
28.4177 10 0 
26.55 4 0 
28.552 10.2914 0 
28.483 10.1502 0 
28.4087 10.0098 0 
28.8751 10.9775 0 
28.3998 10.0196 0 
28.3866 10.0341 0 
28.8399 10.9775 0 
28.6974 10.71 0 
28.3735 10.0485 0 
28.1625 9.59091 0 
28.7436 10.8438 0 
28.4976 10.3489 0 
28.3543 10.0695 0 
28.791 10.9775 0 
28.4052 10.2339 0 
28.3352 10.0905 0 
28.8519 11.1481 0 
28.1869 9.79545 0 
28.5607 10.6071 0 
28.5053 10.5042 0 
28.7423 10.9775 0 
28.8258 11.1481 0 
28.308 10.1203 0 
28.5787 10.71 0 
27.904 9.25 0 
28.7893 11.1481 0 
28.424 10.4266 0 
27.7528 8.90909 0 
28.2807 10.1502 0 
28.6758 10.9775 0 
27.375 8 0 
28.7383 11.1481 0 
28.1619 10 0 
28.5649 10.8438 0 
28.2425 10.1921 0 
28.6096 10.9775 0 
28.1444 10.0196 0 
28.298 10.3489 0 
28.4605 10.71 0 
26.7 6 0 
27.9315 9.59091 0 
28.3503 10.5042 0 
28.6676 11.1481 0 
28.1187 10.0485 0 
28.2042 10.2339 0 
28.5207 10.9775 0 
28.0813 10.0905 0 
28.6814 11.3186 0 
27.3818 8.45455 0 
28.6679 11.3186 0 
28.1516 10.2914 0 
28.5703 11.1481 0 
28.6544 11.3186 0 
28.6358 11.3186 0 
27.5109 8.90909 0 
28.3072 10.71 0 
28.6173 11.3186 0 
28.2524 10.6071 0 
28.4322 10.9775 0 
28.028 10.1502 0 
28.5915 11.3186 0 
28.0989 10.3489 0 
28.33 10.8438 0 
28.5658 11.3186 0 
28.153 10.5042 0 
27.9061 10 0 
27.8975 10.0098 0 
28.5303 11.3186 0 
28.4384 11.1481 0 
27.7002 9.59091 0 
27.889 10.0196 0 
27.8765 10.0341 0 
28.4949 11.3186 0 
28.3154 10.9775 0 
27.9532 10.2339 0 
27.8639 10.0485 0 
28.0276 10.4266 0 
28.1544 10.71 0 
27.8457 10.0695 0 
27.4909 9.25 0 
28.4463 11.3186 0 
27 8 0 
27.8275 10.0905 0 
28.3979 11.3186 0 
27.8015 10.1203 0 
27.6542 9.79545 0 
25.675 2 0 
28.1991 10.9775 0 
27.2691 8.90909 0 
27.9563 10.5042 0 
28.4682 11.5318 0 
28.2625 11.1481 0 
27.7755 10.1502 0 
28.3322 11.3186 0 
27.8502 10.3489 0 
28.4401 11.5318 0 
25.875 4 0 
27.7391 10.1921 0 
28.4019 11.5318 0 
28.0268 10.8438 0 
28.2668 11.3186 0 
27.9602 10.71 0 
28.3498 11.5318 0 
27.4223 9.59091 0 
27.7026 10.2339 0 
27.5927 10 0 
28.0486 10.9775 0 
27.8616 10.6071 0 
27.5762 10.0196 0 
28.1794 11.3186 0 
28.2786 11.5318 0 
27.5519 10.0485 0 
27.6524 10.2914 0 
28.0319 11.1481 0 
27.7108 10.5042 0 
27.5167 10.0905 0 
27.0169 8.90909 0 
28.0924 11.3186 0 
27.6021 10.3489 0 
27.8988 10.9775 0 
28.1818 11.5318 0 
27.7667 10.71 0 
26.625 8 0 
28.255 11.745 0 
27.4664 10.1502 0 
28.2402 11.745 0 
28.2256 11.745 0 
28.2059 11.745 0 
27.978 11.3186 0 
26.7234 8.45455 0 
27.0259 9.25 0 
27.5342 10.4266 0 
28.1863 11.745 0 
27.1442 9.59091 0 
28.0516 11.5318 0 
28.1598 11.745 0 
27.3959 10.2339 0 
28.1334 11.745 0 
27.2793 10 0 
27.2714 10.0098 0 
27.2635 10.0196 0 
27.7086 10.9775 0 
27.6431 10.8438 0 
28.0975 11.745 0 
27.8643 11.3186 0 
27.4661 10.5042 0 
27.2518 10.0341 0 
27.2401 10.0485 0 
28.0617 11.745 0 
26.7648 8.90909 0 
27.5255 10.71 0 
27.7353 11.1481 0 
27.2231 10.0695 0 
28.0133 11.745 0 
27.2061 10.0905 0 
27.8791 11.5318 0 
27.2986 10.3489 0 
27.1818 10.1203 0 
27.9651 11.745 0 
27.3758 10.6071 0 
27.0077 9.79545 0 
27.7174 11.3186 0 
27.1576 10.1502 0 
25 0 0 
27.5193 10.9775 0 
27.9003 11.745 0 
27.1236 10.1921 0 
26.25 8 0 
27.9939 12.0061 0 
25.65 6 0 
27.8359 11.745 0 
26.8136 9.59091 0 
27.0896 10.2339 0 
27.9626 12.0061 0 
27.2853 10.71 0 
25.2 4 0 
27.5713 11.3186 0 
27.9218 12.0061 0 
26.4998 8.90909 0 
27.167 10.5042 0 
27.6541 11.5318 0 
27.0427 10.2914 0 
27.7503 11.745 0 
26.9033 10 0 
27.8677 12.0061 0 
26.8882 10.0196 0 
26.8659 10.0485 0 
26.9958 10.3489 0 
27.2836 10.9775 0 
27.6652 11.745 0 
27.3609 11.1481 0 
27.7955 12.0061 0 
26.499 9.25 0 
[...]
POINT_DATA 1909
SCALARS phi float 1
LOOKUP_TABLE default
-2.03463e+06
-1.31356e+06
-305581
-850987
-310452
-753516
-309138
-445190
-355134
-329399
-2.5117e+06
-187396
-1.84696e+06
-278791
-120158
-1.18348e+06
-6.02709e+06
-46812.5
-212709
-851766
-9533.36
-5.44966e+06
7675.43
-606216
16099.6
-3.13365e+06
-427752
-64594.9
8999.26
-2.22967e+06
-112386
-108172
-1.61883e+06
-107828
-203.6
-1.85993e+06
-859986
-305087
-1.41994e+06
-3.31515e+06
-7334.8
-1.64105e+06
-60075.4
-1.26888e+06
-75926.7
-228889
-15602.3
-36777.3
-49212.9
-1.47726e+06
-1.46155e+06
-1.15445e+06
-10997.6
-36655.1
-1.3573e+06
-192321
-44744.7
-1.07455e+06
-6272.16
-1132.82
-720.143
-1.27787e+06
-20307.6
170.479
-56459.7
-242.331
-42691.7
-1603.88
-5760.72
-24219.8
-26364.2
-48867.3
-5211.27
-45108.9
-4546.16
-85397.3
-5258.67
-152509
-6145.99
-921.419
-54621.6
-6474.7
-4115.96
-33747.8
-13514.9
-3733.97
-11065.8
-17412.4
1110.17
-9765.71
951.92
-2503.86
-11479.1
-2154.59
-8389.27
-6369.38
-8842.49
-2557.75
376.749
-442.328
-3523.29
-19023.7
-100.181
-1.02688e+06
309.211
-1295.24
-6532.12
-2326.87
-1412.75
-2251.32
-37.4696
-193633
-16638.4
-2541.6
-8015.94
-44070
17.3066
-1476.22
-2380.08
327.526
-27484.4
-3801.83
-11674.2
81.2649
-3072.39
-28225.8
-4730.79
-432.361
-2297.57
-3264.64
-5057.04
1.65324
-2686.18
-354.673
-3440.04
-8114.11
-5116.28
-24407
65.1231
-6494.77
-5206.95
-2730.6
-5273.16
111.09
-30610.1
34.8142
-6708.07
-3414.68
-34736
-5185.05
-793.379
-10446.9
-5686.58
-1337.78
-16340.3
-10882.4
31.2985
-6268.39
16.9415
-10573.2
-1976.6
11.514
-4363.19
-10111.5
-29975
-10667.7
70.1068
-4813.4
-13182
-1867.69
-5587.82
-10285.6
-44643.5
0.303037
-8.53348
-11092.2
-12315.6
-8684.68
-3930.45
-9228.81
-496.99
-39616.2
27.433
-391.92
-10824
-18821.1
-30742.2
6.94609
-5087.95
-7894.04
-22721.8
-2419.02
-17721.4
-7389.02
21.8015
-15448.9
-521.194
23.4411
-8799.73
-15937.3
-3240.72
-34981.9
26.7918
-16696.3
-5937.47
-20022.1
-3.37377
-13496.5
-15435.4
-38.424
-18136.7
-6093.35
-3311.05
-6891.83
-13632.2
-8.65105
-15650.5
-692.606
-46667.5
-44479.3
-15443.8
-10459.9
-33.5953
-87887.7
-4602.06
-11126.8
6.65106
-25401.4
-1399.33
-164.903
-35891.9
1.37483
-23203.7
-12230.9
-31557.5
-14.2023
-22117.8
-6198.04
-20293.6
-8571.58
-3951.68
-47.2994
-8098.22
-43831.5
-1403.76
-34835.9
-53.6925
-16859.7
-9274.82
-19846.4
-9.25163
-68268.4
-4416.52
-23348.7
-17809.5
-292.423
-20616.2
-6460.79
-51.944
-15455.6
-13579.5
-22009.1
-470.439
-46490.4
-17567.4
-7498.49
-1.23505e+06
-60183
-5137.22
-180.627
-12968.8
-3.21575
-7756.43
-6.47829
-1965.38
-14569.3
-45.2855
-27456
-11147.7
-61.8596
-25317.6
-10747.3
-5774.85
-45534.3
-704.28
-2952.48
-144.789
-30922.2
-22718.5
-12262.2
-157.87
-57645.9
-20006.2
-8469.43
-369.189
-9352.97
-6559.2
-40101.7
-52.1799
-10105.7
-39468.2
-20576.6
-45726.2
-3167.75
-382.124
-24610.4
-116.006
-17678.1
-19183.5
-11010.4
-22868.2
-30089.3
-6743.12
-17814.3
-1176.38
-270.819
-21212.2
-8582.95
-16581.7
-80227.1
-16051.1
-99.949
-1529.8
-82.9711
-19862.9
-148.393
-632.267
-10541.5
-8418.77
-15684.4
-140.901
-10700.9
-31220.7
-41689.9
-268.332
-4311.26
-30477.9
-64235.7
-18748
-47578.5
-263.504
-87384
-14669.4
-29549.7
-14697.4
-8124.96
-523.592
-1839.2
-5422.99
-28424
-75718.6
-525.02
-44691.5
-17107.8
-126.171
-43554.8
-26863.8
-1096.88
-207.93
-27338.2
-40034.2
-11409.6
-9686.11
-12862.8
-33987
-27528.7
-13024.2
-34197.6
-374.587
-1120.89
-5851.11
-27649.5
-24390.2
-46169.4
-8690.86
-34060.1
-14474.4
-27231.3
-8778.31
-110899
-1.00716e+06
-2784.53
-722.075
-150.902
-32892.2
-149.781
-247.648
-25622
-10459.3
-247.384
-54911.4
-20844.5
-3322.93
-423.777
-30028.1
-1478.69
-422.005
-41345.7
-87780.1
-12528.7
-11109.9
-22510
-41182.5
-723.332
-12477.2
-50690.7
-40382
-7142.79
-47943.6
-703.455
-25501.6
-45647.9
-38659.9
-105456
-17114.2
-1257.41
-18484.7
-133.578
-3681.44
-9279.22
-78788.4
-52418.8
-7798.27
-35810.9
-239.328
-1225.81
-20450.9
-441.451
-35884.9
-84304.4
-43995.6
-2395.8
-31960.3
-35104
-42657.7
-45972.4
-13030.7
-33684.2
-12226.3
-14817
-811.664
-40454.3
-2449.13
-14920.8
-31522.3
-8887.5
-150691
-106.717
-37444.2
-27762.7
-71086.8
-105.108
-188.343
-28861.9
-16603.4
-1517.5
-187.412
-5270.65
-10536.7
-346.72
-57664.6
-34097.6
-48279.3
-346.737
-26231.2
-653.223
-116025
-241094
-12626.3
-47835.9
-5900.78
-47361.4
-24189.2
-656.66
-31084.7
-2934.39
-46295.4
-1.22092e+06
-1241.11
-44669.9
-15557.9
-24137.2
-13725.2
-42546.5
-67364
-1251.16
-142153
-15943.6
-10536.3
-87.7776
-28786.3
-40158.5
-174.758
-2334.55
-21868.8
-6452.66
-347.573
-45403.9
-22617.6
-2380.82
-12705.5
-37899.9
-10346
-50438.5
-38955
-686.811
-47647.1
-38057.2
-46393.2
-26858.3
-79483.4
-65638
-4432.99
-36964.3
-89438.8
-36143.2
-44966.1
-1340.73
-35812.9
-190210
-54.3137
-52.7151
-17419.4
-15799.7
-43577.9
-21111.5
-4511.75
-111.772
-109.795
-34800.4
-47486.8
-12220.5
-20949.2
-230.407
-42440.8
-227.806
-34892.1
-2596.9
-468.523
-34049.7
-8461.45
-146913
-24784.5
-464.803
-41755.8
-13825.7
-41663.6
-933.505
-52357.9
-56233.1
-86486.4
-33551.2
-84605.3
-929.352
-57013.7
-8668.36
-1.00587e+06
-19175.8
-57604.9
-44664.1
-4987.71
-33613.2
-1814
-41246.3
-181086
-57908.6
-35.9373
-92.3246
-1814.69
-17573.3
-33195.2
-21204.2
-57776
-74485.6
-214.08
-14238.1
-24185.8
-3424.08
-56991
-40784.8
-466.072
-9405.78
-46992.1
-73671.5
-109475
-31571.6
-3478.37
-54436.2
-52377.2
-970.465
-32433.1
-66151.9
-55280.5
-13449.2
-54550.9
-18775.1
-68789
-56614.9
-71125.4
-237030
-6450.64
-9.6578
-9.19361
-58275.8
-41.1747
-1951.13
-39085.8
-40.1339
-72739.8
-116.901
-52437.2
-59135.5
-114.859
-283.288
-43846
-6507.19
-73074.8
-20656.1
-24091.9
-280.104
-30358.1
-58698.4
-15637.7
-179849
-627.585
-29690.3
-3835.5
-71463.2
-103149
-623.95
-55569.9
-48646
-1.22078e+06
-56442.5
-11518.7
-83791
-1307.95
-35800.3
-73469
-18777.7
-67379.4
-74991.4
-1310.79
-46411
-76095.4
-226084
0.643688
-52170.9
-11591
-7203.64
-76628.8
-22.9177
-2610.23
-27392.3
-92.6359
-67427.2
-44635.4
-76413.5
-61106.3
-2624.5
-261.511
-89079.6
-23637.2
-128912
-75301.6
-29197.4
-57337.5
-46645.6
-19159.6
-630.791
-5008.47
-43029.4
-34138.4
-73263.1
-166931
-54634.5
-13025.8
-68184.3
-1389.65
-5064.14
-84784.1
-68827.8
-359846
-286172
-85360.9
-41816.5
3.10422
2.98569
-69105.7
-18900.9
4.76064
-70480.7
-41938
-85343.6
4.96283
-27187.3
-20.6074
-68797.7
-19.4776
-9198.87
-84507.2
-2862.76
-109.263
-92864
-1.00694e+06
-67770
-45753.7
-106.546
-57533.2
-82880.1
-332.127
-50552.7
-120445
-209378
-66207.8
-327.448
-67453.7
-9286.22
-80973.1
-28798.3
-821.075
-34569
-61127
-5614.38
-21800.6
-64735.9
-816.002
-40138.2
-41582.5
-79677.9
-1808.02
-15939.4
-42195.2
-88411.2
-64824.2
-267445
-64148.4
-90720.4
-11.1814
-1808.5
5.19565
-58611.3
-92683.2
-49706.5
-27499.3
-3.36861
-79546.2
-94283.8
-3686.91
-10411
-77.6567
-143768
-15840
-95522
-64622.7
-298.364
-3704.04
-40337.9
-96443
-44968.4
-63358.2
-80054.8
-816.886
-1.21831e+06
-83494.1
-33153.7
-7038.56
-100594
-97145.4
-41648.2
-25576.5
-57664.5
-65146.5
-1904.06
-50696.8
-315821
-80046.7
-79.7591
-80.2435
-7062.4
-54959.5
-100449
-18001.5
-35.6418
-97708.4
-36.572
-82483.9
0.528724
-103581
-0.0526107
-80572.5
-85127
3.08351
-107023
3.81839
-41299
-88069.8
-133046
-24929.6
-82.3784
-62939.7
-110797
-4005.16
-79.4782
-12582.5
-98046.2
-91256.3
-65196.3
-40426.3
-226048
-298316
-360.477
-114799
-57459.1
-355.385
-94565
-118815
-1018.98
-12520
-79910.3
-97748.7
-97637.2
-1014.34
-7775.76
-38504.4
-44060.7
-122356
-49258.6
-28906.7
-998395
-2372.28
-289620
-100222
-138.846
-63413.8
-77.6032
-113994
-20995.2
-60946.6
-18.4542
-2373.88
-124609
-119536
-150906
-55123.7
9.58417
-124930
-48894.7
-95694.4
-105324
-101216
-55.0845
-4905.21
-130005
-37458.4
-14004.6
-77133.5
-134561
-331.538
-40331.3
-20669.7
-124875
-4916.69
-67905.4
-138352
-100231
-1034.41
-597889
-59832.6
-141074
-53030.3
-9272.1
-91730.3
-122246
-43936.8
-318895
-317.759
-317.308
-228.735
-32781.8
-229.808
-2523.94
-55707.1
-129.771
-142290
-131.568
-36.5054
-137673
-42821.6
-118688
-9267.83
-37.8358
-1.22051e+06
-96751.7
-151029
-23434.7
12.5836
-125724
-71497.8
12.671
-159375
-132183
-62.8481
-141535
-166883
-224875
-61.0454
-137857
-5346.08
-116709
-42762.4
-173206
-49177.6
-32040.7
-16178
-411.299
-142383
-85143.5
-409.228
-177911
-54079.9
-700872
-145419
-138294
-90880.3
-1285.49
-180655
-39008.1
-16040.6
-146739
-1287.94
-104876
-10209.8
-181021
-285831
-415.911
-313.169
-147052
-108260
-3079.48
-47848.9
-191.327
-145892
-36504.9
-45041.7
-132301
-68.5062
-62948.9
-178547
-3091.49
10.4791
-166193
-26071.9
-1.0033e+06
-174079
-142630
-82753.3
-45.7126
-45593.1
-75882.2
-40709.3
-181395
-6335.61
-173171
-405.701
-187843
-17804
-36218
-123309
-46064.3
-192985
-137165
-6342.95
-25503.8
-39893.4
-97193.9
-1354.88
-196315
-165125
-292006
-701.837
-11651.8
-197325
-698.907
-572.026
-130376
-571.424
-417.153
-418.356
-129427
-245.275
-3329.48
-72742.2
-246.959
-36629.1
-81.4604
-52289.4
-195496
-82.4667
-38569.7
-111389
15.0824
-11565.1
-154002
-64525.5
-34285.5
15.1803
-172242
-28371.2
-201699
-71.2506
-218300
-1.29191e+06
-181051
-190291
-71.0227
-228563
-6900.6
-96538.8
-118994
-188828
-83860.3
-540.092
-237364
-19397.9
-195277
-542.636
-244095
-36904
-181281
-935451
-28689.5
-199691
-36910.4
-139688
-1701.73
-247961
-28368.1
-201515
-96964.4
-1709.3
-128646
-61210.2
-248543
-18946.4
-250489
-807.424
-1.01897e+06
-12624.1
-670.791
-200607
-498.646
-24134.8
-106068
-168433
-300.066
-3979.11
-245428
-106.107
-196448
14.0894
-41024.2
-52066.3
-3978.59
-237954
-122592
-70.5015
-68958.9
-29245.5
-22384.7
-32277.2
-188477
-1.10553e+06
-219045
-152121
-7833.05
-227481
-582.319
-225788
-234785
-80908.6
-20675
-91157.4
-176715
-7752.59
-240648
-1856.71
-20847.3
-27901.1
-48722.6
-209031
-244512
-107324
-230860
-133058
-1136.95
-1133.22
-16281.6
-979.225
-977.551
-783.591
-245688
-783.734
-103565
-161366
-553.259
-13537.5
-554.153
-304.864
-30553.4
-305.559
-4324.19
-77899.7
-82.9265
-243425
-83.0315
-188145
22.1388
22.4038
-152899
-237167
-13170.6
-39585.3
-53644.5
-75109.4
-145.896
-142918
-30277.1
-1.54634e+06
-146.075
-64212
-11357.3
-112186
-226472
-8393.82
-217045
-826.218
-273752
-8194.74
-164073
-1.72418e+06
-225948
-825.309
-283650
-20779.2
-233061
-83641.6
-211109
-25206.5
-291408
-2334.41
-93520.4
-122370
-36547.7
-238515
-296505
-13139.6
-2316.67
-181114
-1220.47
-241301
-1056.33
-845.576
-297748
-592.123
-6486.23
-191261
-14149.2
-19681.3
-318.367
-138064
-240513
-4997.26
-58900.4
-90571
-78.6702
-294382
-235875
22.8405
-4903.44
-286247
-100776
-187.338
-39218.8
-167601
-227371
-47970.7
-1.40982e+06
-21240.3
-28178.6
-273085
-8978.81
-963.276
-3251.29
-63833.7
-214623
-111431
-253250
-254522
-20907.7
-69239.7
-259304
-8638.38
-49705.8
-141263
-197409
-2618.07
-1.66508e+06
-69389.3
-263578
-25653.4
-139358
-79269.1
-1481.79
-230555
-1480.69
-1311.66
-1312.2
-1093.81
-1095.84
-828.784
-265927
-6344.37
-831.677
-43158.4
-529.631
-532.72
-175932
-13956.3
-233.605
-703.546
-36.9605
-236.172
-266072
-5408.37
-16.5779
-15651.7
-17.6721
-201774
-263460
-113811
-6.88831
-85583.7
-84846.1
-4.69862
-150954
-13031.9
-257281
-392.069
-2.07963e+06
-33457.9
-1.93835e+06
-379.437
-45191.1
-26853.4
-246785
-9338.21
-169512
-1404.78
-59012.6
214.265
-50000.7
-1362.53
-47822.5
-231528
-123867
-18828.7
-87027.7
-238904
-3262.68
-298607
-10453.1
-244399
-211365
-92694.9
-1565.49
-135760
-1375.29
-303814
-29023.3
-3128.34
-61939.7
-1130.64
-833.841
-247279
-505.281
-306325
-13762.7
-194.319
-1631.83
-16815
-248455
-6004.92
-186618
-173.645
-96464.1
7.08652
-306446
-247453
-49.213
-303349
-5651.3
-41084.9
-1.96284e+06
-243428
-62545.4
-102888
-568.853
-158206
-295834
-19858
-29445.9
-235285
-21660.5
-33324.3
-9292.87
-5999.4
-283072
-2239.17
-1771.57
-70714.1
-28437.7
-222823
-1626.9
-17216.9
-264954
-41613.3
-127670
-8449.35
-206047
-3816.87
-72954.6
-241470
-55697.7
-1629.38
-1636.08
-1405.14
-1410.74
-1118.28
-1123.73
-248952
-778.712
-18077.6
-784.684
-418.938
-184954
-425.63
-109.589
-41627.3
-115.562
-12158.3
-248152
26.5008
-212876
-97028
-26162.5
26.9424
-6518.15
-48040.3
-198.879
-4819.27
-246406
-159970
241.767
-180.5
-3.12051e+06
-30512.3
-26.843
-2082.23
-1049.6
-292.452
-242745
-2.9067e+06
-1988.49
-180060
-994.781
-10456.9
-5043.99
-9327.69
-236869
-2789.66
-132103
-20187.8
-47496.7
-14668.7
-2631.53
-17724.3
-9235.71
-68468.8
-228661
-25279.9
-20853.2
-14098.8
-144648
-2.5203e+06
-751.073
-5590.29
55.4089
-689.351
-217898
-27555.5
-2421.91
-8226.15
-13156.2
-5229.14
-6721.75
-102946
-9637.62
-29516.9
-25081.1
-18283.5
-204219
-21035.3
-34299.5
-9247.08
-34483.5
-108941
-35740.3
-54096.4
-187288
-8366.89
-14798.6
-351.02
-40736
-52643.3
-43921.3
-10843.9
-10364.1
-14558.3
-74585.6
-75658.5
-27525.9
-219216
-12814.9
-166989
-70483.3
-3484.79
-270190
-97613.2
-13503.2
-217900
-46137.4
-1715.53
-75583.2
-2.73858e+06
-88082.7
-266961
-11069.6
-143540
-890.752
-1078.43
-213930
-117873
-260158
-13470
-15738
-49176
-11007.4
-103168
-11700.3
-206899
-14929.4
-50155.3
-250033
-117637
-12987.8
-24683
-133922
-31466.5
-197610
-9953.44
-47057.8
-237648
-113777
-12126.5
-186902
307.566
-58277.2
-18261.8
-13345.8
-90548.7
-223375
-19222.6
-143314
-174568
-28496.5
-7197.4
-5767.28
-52679.3
-89574.2
-206979
-118288
-14093
-903.744
-160421
-3.14187e+06
-15.7005
-122375
-188294
-64077.4
-143741
-25058.3
-6517.47
-3713.67
-144401
-11220.3
-10102.7
-167191
-9442.77
-3.97013e+06
-152795
-114538
-24850.3
-126378
-22632.7
-53916.5
-5935.7
-178194
-13502.9
-5276.81
-143624
-40331.1
-30108.1
-134343
-167974
-106419
-177333
-4525.48
-9423.34
-53576.7
-3183.78
-117892
-33707.8
-158794
-10148.2
-59124
-103530
-84957.3
-92939.1
-150286
-56672.9
-192672
-3308.8
-90843.4
-21256.9
-4860.74
-93432.1
-32080.4
-1462.84
-141994
-54794.6
-4195.43
-62932.4
-118246
-136759
-25106.8
-133514
-63995.2
-191153
-129725
-124517
-41830.9
-88932
-1949
-2108.32
-6635.62
-280.249
-179122
-8109.63
-114665
-39445
-3.67567e+06
-160948
91.7784
-103610
-41482.3
-175509
-27.4376
-23489.7
-100006
213.885
-3.52874e+06
-213063
-57115.1
-173436
402.643
-91056.5
-19480.4
-183487
-132924
-119120
-1110
604.927
-74447.6
-76844.8
-140743
-2108.43
-9692.37
-144413
-235607
-108824
-151298
-129661
-102409
-61099
-5984.72
-101125
179.936
-198108
-4.68432e+06
-31.5028
-120609
-109772
-11104.7
-82118.8
-94145.1
-44412.5
-1627.35
499.232
-236429
-76173.5
-112118
-1254.49
-87347.1
-56393.8
-80290.3
-103919
203.774
-28000.4
-61851.3
-184763
-24408.9
-121595
-80843.4
-5.19889e+06
-60642.5
-54603
-95968.8
-4698.22
552.545
-74452.7
-212325
-13692.9
-1869.89
-87980.4
-56618.8
-67898.8
-332.692
-40223.8
-79597.1
-37696.1
-159918
-3616.51
-60877.5
-67417.8
-2127.98
-70419.3
-38398.1
-53055.9
-90593.9
-10172
-180501
-60063.7
-5781.69
-54405.8
493.499
-24960.8
-44165.8
-48306.6
-7889.21
-134114
-25009.9
-51672.7
-74121
-34141
-35298.3
-1828.04
-13802.3
-23324.6
-15886
-60735.1
-144148
-21850.8
-22943.3
-12708.7
-15006.4
-4.72226e+06
-9152.64
-9684.16
-62877.3
-60296.9
-4059.55
-102176
-8664.66
-1381.69
-66171.3
-18244.9
320.405
257.485
-7398.94
-1594.63
-102415
-38853.1
-80991.3
-6462.1
-50595.2
-3676.77
-10308.1
-4.41386e+06
-20548.4
-67781.1
-93535.7
-67763
-23597.2
-2257.04
-49161.4
-37281.8
-36238
-49007.6
-694.545
-68950.1
-64739.8
-72213.2
-62743.2
146.823
-6.54601e+06
-4.63542e+06
-48051
-269.888
-70655.6
-1671.8
-47265.1
-53289.9
-48035.9
-3353.03
-122851
-35636.3
-6146.78
-101752
-44278.3
-7304.51
-41567.7
-106432
-5.85145e+06
-54995.8
-12177.8
-6252.74
-102197
-38502
-35181
-12870.8
-5275.45
-6.2901e+06
-19251
-45354.8
-4652.67
-19784.5
-33125
-4041.09
-78837.2
-43022.7
-26508.9
-3424.77
-24092.3
-7.98449e+06
-31755.1
-61710.3
-30520.4
-2820.43
-63131.5
-26007.9
-2250.19
-35632.2
-32699.6
-28407.8
-1729.06
-5.81079e+06
-7.04305e+06
-33819.7
-47777.1
-1205.23
-5.70557e+06
-28799.2
-583.318
-36299.3
-32513.6
65.2622
-9.41908e+06
215.747
244.035
128.392
-8.15915e+06
-29670.1
-7.90956e+06
-30745.2
-29746.4
-28591.3
-311.379
-27620.9
-26378.6
-25397
-24119.2
-7.04679e+06
-23171.8
-655.3
-21880.1
-20961.5
-19671.8
-1371.43
-18779.3
-17506.8
-16633
-15401.3
-2672.68
-14587.5
-7.01782e+06
-13641.6
-12718.3
-4987.7
-11862.5
-9923.58
-8486.78
-8333.21
-6216.65
-4933.39
-3150.14
-2163.66
-1960.09
-8.33858e+06
-1239.2
-9.55893e+06
-389.603
130.426
247.706
281.594
149.925
-295.748
-984.95
-2109.61
-8.36481e+06
-4622.6
-7804.78
-9764.27
-9.67792e+06
-3726.78
-14454.7
-3115.43
-2545.74
-2014.66
-1524.94
-1081.15
-1.12588e+07
-692.309
-348.436
-60.7794
105.564
234.2
306.595
-9.75826e+06
614.477
-191.879
-2484.47
-5140.74
-8961.01
-1.30992e+07
-12400.4
-20747.9
-35022.8
-1.13462e+07
-5322.43
-4861.09
-4518.15
-4193.14
-3864.69
-3566.25
-3262.19
-2985.36
-2707.03
-2450.78
-2197.37
-1964.56
-1734.03
-1529.11
-1314.25
-1121.67
-926.021
-755.452
-592.372
-417.96
-296.38
2.55909
28.1203
-39.113
454.134
748.086
533.872
-182.5
-1034.03
-2175.5
-4238.18
-6487.1
-8734.01
-11756.5
-13604.4
-14643.4
-20286.8
-26484.8
-34809.4
-44191.4
SCALARS cohesion float 1
LOOKUP_TABLE default
12.4961
10.5607
9.29267
9.99185
5.54856
9.63361
7.18547
9.46898
9.51486
9.0998
9.36412
9.60052
6.67136
7.93833
9.85809
9.44603
10.3703
9.86204
9.65287
9.44744
9.59063
11.0957
9.19469
9.19621
8.68208
8.28493
8.51505
10.0906
8.31267
8.45815
10.1728
12.8371
8.21964
8.63746
8.12051
8.29278
10.4492
7.82429
8.25998
12.5853
8.11702
8.26964
13.5805
8.21379
12.1361
7.57987
8.05757
13.2125
10.2953
8.31888
13.3918
8.52489
8.11959
12.7997
8.76597
7.78588
12.3741
9.20416
8.20003
10.5497
9.97547
9.71649
10.4549
10.9235
12.4452
10.4966
13.6872
17.4942
15.9223
10.8029
13.3803
15.7287
14.0771
12.2116
14.0155
11.6284
14.61
10.8484
14.2934
11.6762
13.9772
15.0836
14.2599
12.5826
13.2367
13.4943
13.0748
13.1421
13.2204
13.0668
13.2297
13.0635
13.2703
13.1081
14.2459
15.0266
13.1741
13.0588
13.1735
13.1323
13.0684
13.2929
13.165
10.3766
13.2016
13.1179
13.2613
13.0605
13.1178
12.9977
13.228
8.36818
13.301
13.019
15.004
13.1594
8.25718
13.1314
13.0232
13.1856
13.4035
13.074
14.3125
13.2436
13.0331
13.3016
12.9827
13.1457
13.0399
13.2994
12.9937
13.2603
13.097
13.1626
13.0519
15.1063
12.9901
13.3409
13.2211
12.9938
13.0109
13.0638
13.0013
13.1798
11.0048
13.2867
13.0082
13.0811
13.375
13.0159
13.1318
13.0414
13.0343
13.3504
14.3867
15.2362
13.206
13.0278
13.315
13.0515
13.099
13.2728
13.0401
13.068
13.4095
13.1393
13.2321
13.0696
13.1458
13.1242
13.0576
13.1514
13.3695
13.3516
13.1833
15.3105
13.1598
13.0922
13.0751
13.1681
13.15
13.445
13.2685
13.4273
13.1805
13.4015
13.7852
13.388
13.1
13.1929
14.5046
13.1197
13.4134
13.1273
13.3466
15.3996
13.185
13.3051
13.2105
13.4311
13.1248
13.4928
13.2556
13.7014
13.2282
13.7076
13.4409
13.4565
13.7139
13.2218
13.7229
13.1773
13.1603
13.2534
13.732
13.3571
15.4916
13.1914
13.5442
13.7614
13.7451
13.4932
13.535
12.4946
13.2792
13.7582
13.4937
14.1906
13.1967
13.2723
11.3747
13.4523
14.2039
13.7778
14.6668
13.4095
15.5844
13.3149
14.2237
13.7976
13.2489
13.3591
13.5462
13.6155
13.246
14.0082
13.3242
14.2529
13.8248
14.6665
13.5673
13.1754
13.3509
14.6738
14.6811
13.2929
14.6918
13.8521
13.482
14.7024
14.2939
15.6968
13.2978
13.9634
14.7175
13.621
11.1359
13.6791
13.4018
13.3934
14.7325
13.6828
13.8911
13.6397
13.3489
14.7546
13.5969
14.9797
14.353
13.5508
14.9949
14.7766
13.93
14.8793
13.3621
13.4501
13.4974
15.8036
15.0168
14.8077
13.4597
13.7741
15.0486
13.9796
13.4248
14.8384
13.7198
11.9626
13.7303
14.4319
14.3081
14.8276
14.3894
13.5132
13.4266
14.8349
13.6418
15.0929
14.8422
14.8784
14.8526
15.9304
14.0286
14.8629
13.4754
13.546
14.8773
14.9175
14.8915
13.8506
15.1513
13.8717
13.575
13.8201
14.9112
13.7768
13.5067
14.5336
14.0926
14.9304
13.7265
14.9706
13.9026
16.0689
13.6684
13.8439
13.9141
15.1393
14.9582
14.7481
13.6259
13.3279
15.2303
13.9305
14.9854
15.0212
13.5845
13.6494
14.1518
13.9532
13.9533
13.5807
14.635
15.021
13.9245
12.7411
13.9848
13.6231
13.8281
12.7186
16.1874
15.0837
14.6557
15.0551
12.7229
12.7271
15.3274
12.7331
13.721
13.7175
14.223
12.7389
14.0256
15.1118
8.40112
12.747
15.0986
12.7549
15.1412
14.0466
11.8862
13.9827
13.6676
14.0855
12.7654
14.02
13.9755
12.7755
15.1393
13.9197
16.3323