# vtk DataFile Version 3.0
File generated from DClib
ASCII

DATASET UNSTRUCTURED_GRID
POINTS 1909 float
50 0 0 
48.75 0 0 
50 1.66667 0 
47.5 0 0 
50 3.33333 0 
46.25 0 0 
50 5 0 
45 0 0 
43.75 0 0 
50 6.66667 0 
43 2 0 
42.5 0 0 
50 8.33333 0 
43 4.66667 0 
41.25 0 0 
41.075 2 0 
50 10 0 
40 0 0 
43 7.33333 0 
39.15 2 0 
38.75 0 0 
43 10 0 
37.5 0 0 
37.225 2 0 
36.25 0 0 
36 4 0 
35.3 2 0 
36 5 0 
35 0 0 
35.325 4 0 
36 6 0 
36 7 0 
34.65 4 0 
36 8 0 
33.75 0 0 
33.975 4 0 
36 9 0 
33.375 2 0 
33.3 4 0 
36 10 0 
32.5 0 0 
32.625 4 0 
33 6 0 
31.95 4 0 
33 7.45455 0 
31.45 2 0 
31.25 0 0 
31.95 6 0 
33 8.79545 0 
31.275 4 0 
33 10 0 
30.6 4 0 
30 0 0 
30.9 6 0 
29.925 4 0 
29.525 2 0 
29.85 6 0 
29.25 4 0 
28.75 0 0 
30 8 0 
30 8.45455 0 
28.575 4 0 
29.625 8 0 
30 8.90909 0 
28.8 6 0 
30 9.25 0 
29.782 8.90909 0 
30 9.59091 0 
29.9487 9.59091 0 
29.25 8 0 
29.7462 9.25 0 
30 9.79545 0 
29.897 9.59091 0 
29.564 8.90909 0 
29.9547 9.79545 0 
29.3462 8.45455 0 
29.84 9.59091 0 
30 10 0 
29.8975 9.79545 0 
29.9882 10 0 
29.9902 10.0098 0 
29.7827 9.59091 0 
29.9765 10 0 
29.9804 10.0196 0 
29.9667 10.0098 0 
29.9591 10 0 
29.9686 10.0196 0 
29.9659 10.0341 0 
29.9569 10.0196 0 
29.9418 10 0 
29.9395 10.0196 0 
29.9515 10.0485 0 
29.932 10.0098 0 
29.9424 10.0341 0 
29.8241 9.79545 0 
29.7181 9.59091 0 
29.9166 10 0 
29.9397 10.0485 0 
29.9222 10.0196 0 
29.9279 10.0485 0 
29.9305 10.0695 0 
29.8914 10 0 
29.9077 10.0341 0 
27.9 4 0 
29.897 10.0196 0 
29.9106 10.0485 0 
29.8817 10.0098 0 
29.907 10.0695 0 
29.8933 10.0485 0 
29.9095 10.0905 0 
29.8719 10.0196 0 
27.6 2 0 
29.8556 10 0 
29.8978 10.0905 0 
29.6531 9.59091 0 
29.3437 8.90909 0 
27.5 0 0 
29.8681 10.0485 0 
29.886 10.0905 0 
29.8574 10.0341 0 
29.4839 9.25 0 
29.8723 10.0695 0 
29.7289 9.79545 0 
29.836 10.0196 0 
29.8687 10.0905 0 
29.8197 10 0 
29.8797 10.1203 0 
29.843 10.0485 0 
29.8513 10.0905 0 
29.81 10.0098 0 
29.8561 10.1203 0 
29.8002 10.0196 0 
29.8221 10.0695 0 
29.8072 10.0485 0 
29.8262 10.0905 0 
29.5782 9.59091 0 
29.8498 10.1502 0 
29.7695 10 0 
29.7858 10.0341 0 
29.838 10.1502 0 
29.8215 10.1203 0 
29.8011 10.0905 0 
29.8262 10.1502 0 
29.7714 10.0485 0 
28.875 8 0 
29.75 10.0196 0 
29.8089 10.1502 0 
29.7654 10.0905 0 
29.7193 10 0 
29.7916 10.1502 0 
29.7505 10.0695 0 
29.8079 10.1921 0 
29.7713 10.1203 0 
29.7096 10.0098 0 
29.6047 9.79545 0 
29.503 9.59091 0 
29.7213 10.0485 0 
29.7665 10.1502 0 
29.6999 10.0196 0 
29.7844 10.1921 0 
29.7296 10.0905 0 
29.6856 10.0341 0 
29.7414 10.1502 0 
29.7497 10.1921 0 
29.6503 10 0 
29.7661 10.2339 0 
29.6712 10.0485 0 
29.6999 10.1203 0 
29.7543 10.2339 0 
29.6796 10.0905 0 
29.7057 10.1502 0 
29.7425 10.2339 0 
29.1235 8.90909 0 
29.6309 10.0196 0 
29.6504 10.0695 0 
29.4146 9.59091 0 
29.7252 10.2339 0 
29.6996 10.1921 0 
29.6701 10.1502 0 
29.7079 10.2339 0 
29.6296 10.0905 0 
29.5813 10 0 
29.6023 10.0485 0 
29.5716 10.0098 0 
29.6828 10.2339 0 
29.7086 10.2914 0 
29.2101 9.25 0 
29.562 10.0196 0 
29.6201 10.1502 0 
29.6578 10.2339 0 
29.4428 9.79545 0 
29.5999 10.1203 0 
29.6849 10.2914 0 
29.6283 10.1921 0 
29.5477 10.0341 0 
29.3259 9.59091 0 
29.5608 10.0905 0 
29.5335 10.0485 0 
29.6221 10.2339 0 
29.6503 10.2914 0 
29.5702 10.1502 0 
29.4881 10 0 
29.5128 10.0695 0 
29.6511 10.3489 0 
29.5866 10.2339 0 
29.6392 10.3489 0 
29.4689 10.0196 0 
29.6002 10.2914 0 
29.6273 10.3489 0 
29.4921 10.0905 0 
29.61 10.3489 0 
29.5286 10.1921 0 
29.5016 10.1502 0 
29.5368 10.2339 0 
29.5926 10.3489 0 
29.4405 10.0485 0 
29.2199 9.59091 0 
29.4626 10.1203 0 
29.3949 10 0 
28.9 8.90909 0 
29.5676 10.3489 0 
29.5291 10.2914 0 
29.3853 10.0098 0 
28.6923 8.45455 0 
29.487 10.2339 0 
29.5426 10.3489 0 
29.3758 10.0196 0 
29.5734 10.4266 0 
29.4331 10.1502 0 
29.3993 10.0905 0 
28.5 8 0 
29.3617 10.0341 0 
29.5496 10.4266 0 
29.5071 10.3489 0 
29.2327 9.79545 0 
29.3475 10.0485 0 
29.1136 9.59091 0 
29.4187 10.2339 0 
29.5148 10.4266 0 
29.4716 10.3489 0 
29.3918 10.1921 0 
29.3271 10.0695 0 
29.4298 10.2914 0 
29.2714 10 0 
29.3406 10.1502 0 
28.9208 9.25 0 
29.3066 10.0905 0 
29.4648 10.4266 0 
29.422 10.3489 0 
29.4958 10.5042 0 
29.2524 10.0196 0 
27.75 6 0 
29.3504 10.2339 0 
29.4837 10.5042 0 
29.4718 10.5042 0 
29.2774 10.1203 0 
29.4543 10.5042 0 
29.3724 10.3489 0 
29.2244 10.0485 0 
29.4369 10.5042 0 
29.3938 10.4266 0 
28.9853 9.59091 0 
29.2481 10.1502 0 
28.6766 8.90909 0 
29.4119 10.5042 0 
29.2934 10.2914 0 
27.225 4 0 
29.148 10 0 
29.2582 10.2339 0 
29.1837 10.0905 0 
29.3869 10.5042 0 
29.1385 10.0098 0 
29.3044 10.3489 0 
29.1291 10.0196 0 
29.2072 10.1921 0 
29.3514 10.5042 0 
29.1152 10.0341 0 
29.3929 10.6071 0 
29.2949 10.4266 0 
29.1013 10.0485 0 
29.3686 10.6071 0 
29.316 10.5042 0 
29.2364 10.3489 0 
28.9623 9.79545 0 
29.1257 10.1502 0 
29.1662 10.2339 0 
29.0811 10.0695 0 
28.8566 9.59091 0 
29.3336 10.6071 0 
29.2666 10.5042 0 
29.0609 10.0905 0 
28.9875 10 0 
29.2835 10.6071 0 
29.1448 10.3489 0 
29.0321 10.1203 0 
29.2173 10.5042 0 
29.1098 10.2914 0 
28.125 8 0 
28.9688 10.0196 0 
29.1594 10.4266 0 
28.611 9.25 0 
29.29 10.71 0 
28.4486 8.90909 0 
29.0443 10.2339 0 
29.0033 10.1502 0 
29.2777 10.71 0 
28.9413 10.0485 0 
29.2128 10.6071 0 
29.2655 10.71 0 
29.1497 10.5042 0 
29.2478 10.71 0 
28.7003 9.59091 0 
29.0533 10.3489 0 
29.2303 10.71 0 
28.9629 10.1921 0 
28.9013 10.0905 0 
29.2051 10.71 0 
29.0822 10.5042 0 
29.1801 10.71 0 
28.827 10 0 
29.1144 10.6071 0 
28.8177 10.0098 0 
28.9225 10.2339 0 
28.8085 10.0196 0 
29.1447 10.71 0 
28.7949 10.0341 0 
28.8443 10.1502 0 
28.977 10.4266 0 
28.9322 10.3489 0 
29.1094 10.71 0 
28.7813 10.0485 0 
28.9912 10.5042 0 
29.1562 10.8438 0 
28.5436 9.59091 0 
28.7615 10.0695 0 
28.8669 10.2914 0 
29.1313 10.8438 0 
28.6184 9.79545 0 
29.0602 10.71 0 
28.2207 8.90909 0 
28.7418 10.0905 0 
28.0378 8.45455 0 
28.9798 10.6071 0 
29.0958 10.8438 0 
29.0112 10.71 0 
28.9005 10.5042 0 
28.7136 10.1203 0 
28.7644 10.2339 0 
28.8113 10.3489 0 
29.0454 10.8438 0 
28.6223 10 0 
28.6854 10.1502 0 
28.2746 9.25 0 
28.9441 10.71 0 
28.6042 10.0196 0 
27.75 8 0 
28.9747 10.8438 0 
28.6459 10.1921 0 
28.5773 10.0485 0 
29.0225 10.9775 0 
28.3532 9.59091 0 
28.7804 10.5042 0 
28.736 10.4266 0 
28.8772 10.71 0 
29.0097 10.9775 0 
28.9971 10.9775 0 
28.799 10.6071 0 
28.9791 10.9775 0 
28.5384 10.0905 0 
28.6064 10.2339 0 
28.6543 10.3489 0 
28.9611 10.9775 0 
28.8769 10.8438 0 
27.9867 8.90909 0 
26.25 0 0 
28.9358 10.9775 0 
28.7871 10.71 0 
28.9106 10.9775 0 
28.6607 10.5042 0 
28.4177 10 0 
26.55 4 0 
28.552 10.2914 0 
28.483 10.1502 0 
28.4087 10.0098 0 
28.8751 10.9775 0 
28.3998 10.0196 0 
28.3866 10.0341 0 
28.8399 10.9775 0 
28.6974 10.71 0 
28.3735 10.0485 0 
28.1625 9.59091 0 
28.7436 10.8438 0 
28.4976 10.3489 0 
28.3543 10.0695 0 
28.791 10.9775 0 
28.4052 10.2339 0 
28.3352 10.0905 0 
28.8519 11.1481 0 
28.1869 9.79545 0 
28.5607 10.6071 0 
28.5053 10.5042 0 
28.7423 10.9775 0 
28.8258 11.1481 0 
28.308 10.1203 0 
28.5787 10.71 0 
27.904 9.25 0 
28.7893 11.1481 0 
28.424 10.4266 0 
27.7528 8.90909 0 
28.2807 10.1502 0 
28.6758 10.9775 0 
27.375 8 0 
28.7383 11.1481 0 
28.1619 10 0 
28.5649 10.8438 0 
28.2425 10.1921 0 
28.6096 10.9775 0 
28.1444 10.0196 0 
28.298 10.3489 0 
28.4605 10.71 0 
26.7 6 0 
27.9315 9.59091 0 
28.3503 10.5042 0 
28.6676 11.1481 0 
28.1187 10.0485 0 
28.2042 10.2339 0 
28.5207 10.9775 0 
28.0813 10.0905 0 
28.6814 11.3186 0 
27.3818 8.45455 0 
28.6679 11.3186 0 
28.1516 10.2914 0 
28.5703 11.1481 0 
28.6544 11.3186 0 
28.6358 11.3186 0 
27.5109 8.90909 0 
28.3072 10.71 0 
28.6173 11.3186 0 
28.2524 10.6071 0 
28.4322 10.9775 0 
28.028 10.1502 0 
28.5915 11.3186 0 
28.0989 10.3489 0 
28.33 10.8438 0 
28.5658 11.3186 0 
28.153 10.5042 0 
27.9061 10 0 
27.8975 10.0098 0 
28.5303 11.3186 0 
28.4384 11.1481 0 
27.7002 9.59091 0 
27.889 10.0196 0 
27.8765 10.0341 0 
28.4949 11.3186 0 
28.3154 10.9775 0 
27.9532 10.2339 0 
27.8639 10.0485 0 
28.0276 10.4266 0 
28.1544 10.71 0 
27.8457 10.0695 0 
27.4909 9.25 0 
28.4463 11.3186 0 
27 8 0 
27.8275 10.0905 0 
28.3979 11.3186 0 
27.8015 10.1203 0 
27.6542 9.79545 0 
25.675 2 0 
28.1991 10.9775 0 
27.2691 8.90909 0 
27.9563 10.5042 0 
28.4682 11.5318 0 
28.2625 11.1481 0 
27.7755 10.1502 0 
28.3322 11.3186 0 
27.8502 10.3489 0 
28.4401 11.5318 0 
25.875 4 0 
27.7391 10.1921 0 
28.4019 11.5318 0 
28.0268 10.8438 0 
28.2668 11.3186 0 
27.9602 10.71 0 
28.3498 11.5318 0 
27.4223 9.59091 0 
27.7026 10.2339 0 
27.5927 10 0 
28.0486 10.9775 0 
27.8616 10.6071 0 
27.5762 10.0196 0 
28.1794 11.3186 0 
28.2786 11.5318 0 
27.5519 10.0485 0 
27.6524 10.2914 0 
28.0319 11.1481 0 
27.7108 10.5042 0 
27.5167 10.0905 0 
27.0169 8.90909 0 
28.0924 11.3186 0 
27.6021 10.3489 0 
27.8988 10.9775 0 
28.1818 11.5318 0 
27.7667 10.71 0 
26.625 8 0 
28.255 11.745 0 
27.4664 10.1502 0 
28.2402 11.745 0 
28.2256 11.745 0 
28.2059 11.745 0 
27.978 11.3186 0 
26.7234 8.45455 0 
27.0259 9.25 0 
27.5342 10.4266 0 
28.1863 11.745 0 
27.1442 9.59091 0 
28.0516 11.5318 0 
28.1598 11.745 0 
27.3959 10.2339 0 
28.1334 11.745 0 
27.2793 10 0 
27.2714 10.0098 0 
27.2635 10.0196 0 
27.7086 10.9775 0 
27.6431 10.8438 0 
28.0975 11.745 0 
27.8643 11.3186 0 
27.4661 10.5042 0 
27.2518 10.0341 0 
27.2401 10.0485 0 
28.0617 11.745 0 
26.7648 8.90909 0 
27.5255 10.71 0 
27.7353 11.1481 0 
27.2231 10.0695 0 
28.0133 11.745 0 
27.2061 10.0905 0 
27.8791 11.5318 0 
27.2986 10.3489 0 
27.1818 10.1203 0 
27.9651 11.745 0 
27.3758 10.6071 0 
27.0077 9.79545 0 
27.7174 11.3186 0 
27.1576 10.1502 0 
25 0 0 
27.5193 10.9775 0 
27.9003 11.745 0 
27.1236 10.1921 0 
26.25 8 0 
27.9939 12.0061 0 
25.65 6 0 
27.8359 11.745 0 
26.8136 9.59091 0 
27.0896 10.2339 0 
27.9626 12.0061 0 
27.2853 10.71 0 
25.2 4 0 
27.5713 11.3186 0 
27.9218 12.0061 0 
26.4998 8.90909 0 
27.167 10.5042 0 
27.6541 11.5318 0 
27.0427 10.2914 0 
27.7503 11.745 0 
26.9033 10 0 
27.8677 12.0061 0 
26.8882 10.0196 0 
26.8659 10.0485 0 
26.9958 10.3489 0 
27.2836 10.9775 0 
27.6652 11.745 0 
27.3609 11.1481 0 
27.7955 12.0061 0 
26.499 9.25 0 
[...]
POINT_DATA 1909
SCALARS phi float 1
LOOKUP_TABLE default
VECTORS Displacement float
0 0 0
0 0 0
0 -0.00544405 0
0 0 0
0 -0.00753172 0
0 0 0
0 -0.0065027 0
0 0 0
0 0 0
0 -0.00265428 0
0.015513 -0.00472649 0
0 0 0
0 0.00374052 0
0.0300642 -0.00279375 0
0 0 0
0.0210339 -0.00463613 0
0 0.0119922 0
0 0 0
0.0400847 0.00669719 0
0.0270979 -0.00471144 0
0 0 0
0.0454661 0.0216364 0
0 0 0
0.0335747 -0.00506758 0
0 0 0
0.0636311 -0.00318068 0
0.0401001 -0.00570734 0
0.0750686 0.000655484 0
0 0 0
0.0682624 -0.0035159 0
0.0833267 0.00585587 0
0.0886679 0.0121176 0
0.0728042 -0.00393221 0
0.0918643 0.0187062 0
0 0 0
0.0773188 -0.00459363 0
0.0943163 0.025477 0
0.0462511 -0.0065873 0
0.0817001 -0.00535035 0
0.0966179 0.0330962 0
0 0 0
0.0858623 -0.00626153 0
0.109876 0.0028676 0
0.0898075 -0.0072636 0
0.120418 0.0138636 0
0.051642 -0.0076543 0
0 0 0
0.119006 -0.000827833 0
0.124842 0.028448 0
0.0934444 -0.00837195 0
0.125399 0.0488224 0
0.0967848 -0.00956087 0
0 0 0
0.126677 -0.0046677 0
0.0997883 -0.010826 0
0.0559596 -0.0088652 0
0.13312 -0.00881169 0
0.102434 -0.0121647 0
0 0 0
0.155816 0.000708124 0
0.160248 0.00404227 0
0.10473 -0.0135535 0
0.158976 -0.00208854 0
0.164542 0.00815454 0
0.138325 -0.0132355 0
0.167613 0.0140719 0
0.166929 0.00556231 0
0.170645 0.0225097 0
0.171359 0.0204318 0
0.161761 -0.00495571 0
0.17069 0.00940462 0
0.171319 0.0284611 0
0.172052 0.0187102 0
0.169072 0.00321768 0
0.172008 0.0263339 0
0.166156 -0.00176805 0
0.172725 0.0169751 0
0.171404 0.0353645 0
0.172921 0.0238924 0
0.171725 0.0354724 0
0.21698 0.0517793 0
0.173353 0.0154518 0
0.172089 0.0354232 0
0.246342 0.0615244 0
0.215742 0.0509876 0
0.172651 0.0353001 0
0.245017 0.0607543 0
0.249023 0.0611513 0
0.243526 0.0598299 0
0.173259 0.0350548 0
0.241055 0.0585376 0
0.249181 0.0603826 0
0.213673 0.0493713 0
0.24778 0.0596189 0
0.174158 0.0212728 0
0.173987 0.0139166 0
0.174151 0.0343992 0
0.249074 0.0597247 0
0.238619 0.0571379 0
0.248978 0.05912 0
0.24965 0.0595795 0
0.17507 0.0337135 0
0.245034 0.0575236 0
0.106632 -0.0150197 0
0.235348 0.055038 0
0.248656 0.058329 0
0.21115 0.0464424 0
0.249462 0.058422 0
0.248187 0.057437 0
0.249389 0.0586431 0
0.23231 0.0529642 0
0.0589589 -0.010194 0
0.176317 0.0323321 0
0.249329 0.0580651 0
0.174568 0.0124994 0
0.171122 0.000976707 0
0 0 0
0.247207 0.0559966 0
0.249252 0.0574609 0
0.240667 0.0540699 0
0.17347 0.00583166 0
0.249067 0.0565748 0
0.175781 0.018515 0
0.228641 0.0498872 0
0.249114 0.056501 0
0.17753 0.03102 0
0.249067 0.0573155 0
0.245836 0.0544048 0
0.248969 0.0554921 0
0.208451 0.0418865 0
0.248929 0.0560005 0
0.225297 0.0470102 0
0.2479 0.0534967 0
0.243639 0.0518965 0
0.248712 0.053973 0
0.175207 0.0110304 0
0.248554 0.0558021 0
0.179065 0.0289623 0
0.23468 0.0486555 0
0.248476 0.0551063 0
0.248691 0.0539288 0
0.248423 0.0524233 0
0.248395 0.0543957 0
0.241135 0.0493766 0
0.164434 -0.0078313 0
0.221412 0.0430944 0
0.248268 0.0533341 0
0.24782 0.0502451 0
0.180459 0.0270415 0
0.248136 0.0522661 0
0.245048 0.0488656 0
0.247769 0.0535416 0
0.248294 0.0508494 0
0.205643 0.0358612 0
0.177777 0.0155872 0
0.175809 0.00963477 0
0.237601 0.045815 0
0.247942 0.0507169 0
0.218081 0.0395932 0
0.247624 0.0520845 0
0.246991 0.0480779 0
0.227271 0.0414836 0
0.247744 0.049193 0
0.247398 0.0499457 0
0.18213 0.0245496 0
0.246937 0.0512088 0
0.234036 0.0424601 0
0.247508 0.046594 0
0.246857 0.0504704 0
0.245454 0.0451348 0
0.247461 0.0470735 0
0.246777 0.04974 0
0.173008 -0.00125469 0
0.214367 0.0352507 0
0.239786 0.0425915 0
0.176529 0.00814984 0
0.246661 0.0486777 0
0.247057 0.0469469 0
0.247187 0.0450487 0
0.246547 0.0476361 0
0.24349 0.0422781 0
0.183546 0.0222165 0
0.22945 0.0381173 0
0.202794 0.0289257 0
0.246386 0.0461642 0
0.245808 0.0480139 0
0.176038 0.00245314 0
0.211403 0.0314666 0
0.246716 0.0423795 0
0.246229 0.0447416 0
0.180065 0.0124191 0
0.245532 0.0411361 0
0.245667 0.0465968 0
0.246585 0.0429867 0
0.219172 0.0331996 0
0.177256 0.00673914 0
0.240374 0.0385677 0
0.225252 0.0342066 0
0.24601 0.0427998 0
0.245463 0.0445933 0
0.246146 0.0398776 0
0.185178 0.0195486 0
0.23196 0.0348988 0
0.244683 0.0449329 0
0.245796 0.0409574 0
0.244615 0.0442508 0
0.208155 0.0271023 0
0.245178 0.0418646 0
0.244549 0.0435825 0
0.236942 0.0350683 0
0.244453 0.0426225 0
0.245919 0.0380673 0
0.244985 0.0367136 0
0.245511 0.0385239 0
0.24436 0.0416897 0
0.220262 0.0295102 0
0.178139 0.00516849 0
0.241036 0.0345316 0
0.186492 0.0170163 0
0.174783 -0.00350792 0
0.244229 0.0403828 0
0.244798 0.038311 0
0.199904 0.0216443 0
0.170925 -0.00750744 0
0.245246 0.0362656 0
0.244103 0.0391265 0
0.205679 0.0233045 0
0.243335 0.0410419 0
0.24339 0.0337233 0
0.232198 0.0307186 0
0.166768 -0.010788 0
0.211305 0.024561 0
0.243216 0.0397925 0
0.243932 0.0374167 0
0.182517 0.0088407 0
0.21607 0.0253979 0
0.179045 0.00366154 0
0.244854 0.0333828 0
0.243048 0.0380504 0
0.24377 0.0357949 0
0.244443 0.0322486 0
0.222355 0.0262869 0
0.244322 0.0339115 0
0.187961 0.0142207 0
0.240586 0.0300195 0
0.178403 -0.00101882 0
0.227557 0.0267392 0
0.242818 0.035694 0
0.243554 0.0336573 0
0.241992 0.0374198 0
0.202924 0.019026 0
0.142232 -0.0178808 0
0.244418 0.0307365 0
0.241942 0.0368379 0
0.241892 0.0362687 0
0.23316 0.0268077 0
0.241822 0.0354547 0
0.24335 0.031653 0
0.211463 0.0206775 0
0.241754 0.0346636 0
0.242515 0.0326236 0
0.180136 0.00192101 0
0.237221 0.0264933 0
0.176433 -0.00575962 0
0.241657 0.0335574 0
0.243744 0.0286907 0
0.108175 -0.0165083 0
0.189122 0.0115277 0
0.243467 0.0274631 0
0.221889 0.0219587 0
0.241564 0.0324911 0
0.197119 0.0142186 0
0.243085 0.0290763 0
0.200869 0.0152438 0
0.240417 0.0255256 0
0.241434 0.031035 0
0.20451 0.0159941 0
0.240472 0.0330734 0
0.242134 0.0287677 0
0.207855 0.0165715 0
0.240384 0.0320216 0
0.241308 0.0296429 0
0.242838 0.0266823 0
0.184976 0.00458189 0
0.232333 0.0221625 0
0.242043 0.0243783 0
0.212593 0.0172672 0
0.181234 0.000228892 0
0.240259 0.0305616 0
0.241137 0.0277883 0
0.216939 0.0177281 0
0.190374 0.00844364 0
0.240086 0.0285783 0
0.242496 0.0236555 0
0.222552 0.0180955 0
0.240974 0.0260278 0
0.242524 0.0226183 0
0.168883 -0.0137224 0
0.198644 0.010945 0
0.241669 0.0240803 0
0.180605 -0.00468411 0
0.238928 0.0290647 0
0.177951 -0.00807258 0
0.239336 0.0206184 0
0.227276 0.0181258 0
0.238895 0.0285785 0
0.204222 0.0119296 0
0.239854 0.0259568 0
0.238862 0.0281016 0
0.240755 0.0237402 0
0.238816 0.0274226 0
0.182522 -0.00177293 0
0.242119 0.0208576 0
0.23877 0.0267592 0
0.23229 0.0177151 0
0.211626 0.0127842 0
0.238705 0.0258305 0
0.240545 0.0215789 0
0.23864 0.0249275 0
0.191371 0.00545197 0
0.239548 0.0225935 0
0.195007 0.00658538 0
0.235851 0.0170007 0
0.197174 0.00711937 0
0.238547 0.0236873 0
0.199444 0.00753126 0
0.221116 0.0132467 0
0.241117 0.0185303 0
0.241228 0.0174167 0
0.238456 0.0224885 0
0.201563 0.00785111 0
0.240271 0.018831 0
0.237167 0.0243427 0
0.183772 -0.00374239 0
0.204565 0.00822414 0
0.238568 0.0156454 0
0.237106 0.0234455 0
0.187326 -0.000603382 0
0.238326 0.0208767 0
0.179338 -0.0103845 0
0.207523 0.00851221 0
0.174698 -0.0133347 0
0.23915 0.0184017 0
0.23702 0.0222035 0
0.238197 0.019328 0
0.24001 0.0162501 0
0.211701 0.00880046 0
0.230701 0.0126131 0
0.239795 0.0141724 0
0.236898 0.0205073 0
0.192381 0.00192102 0
0.215695 0.00892382 0
0.182716 -0.00856275 0
0.238017 0.0172926 0
0.195875 0.00280002 0
0.170653 -0.0166881 0
0.23673 0.0182392 0
0.220838 0.00885466 0
0.199248 0.00328241 0
0.235423 0.0199403 0
0.185199 -0.00609751 0
0.239659 0.0130298 0
0.239927 0.0120951 0
0.237838 0.0153504 0
0.2354 0.0195157 0
0.235377 0.019098 0
0.238642 0.0133304 0
0.235344 0.0185105 0
0.203754 0.0036533 0
0.225256 0.0085126 0
0.236978 0.0103175 0
0.235312 0.0179337 0
0.2365 0.0152841 0
0.180578 -0.0127688 0
0 0 0
0.235264 0.0171302 0
0.237596 0.0128649 0
0.235217 0.0163444 0
0.239268 0.0100577 0
0.193213 -0.00149736 0
0.109306 -0.0180915 0
0.229951 0.00769103 0
0.210221 0.0038618 0
0.194357 -0.00124579 0
0.235148 0.0152655 0
0.195336 -0.00107751 0
0.196574 -0.000924443 0
0.235079 0.0142161 0
0.237358 0.0105179 0
0.197789 -0.000803719 0
0.186526 -0.00843077 0
0.236191 0.0115525 0
0.233277 0.0066315 0
0.199522 -0.000674425 0
0.234981 0.0128028 0
0.218868 0.00360459 0
0.201241 -0.000586538 0
0.233357 0.0147422 0
0.189592 -0.00679929 0
0.238042 0.00743984 0
0.238327 0.00650604 0
0.234883 0.0114388 0
0.233318 0.0139382 0
0.203712 -0.000516673 0
0.237056 0.00761046 0
0.184756 -0.0127049 0
0.233261 0.012842 0
0.235783 0.00494441 0
0.181687 -0.0151383 0
0.206251 -0.000495069 0
0.234747 0.00964516 0
0.172166 -0.0196608 0
0.233182 0.0113567 0
0.193962 -0.00554279 0
0.235786 0.00701846 0
0.209869 -0.000556936 0
0.234612 0.00793339 0
0.195136 -0.00543847 0
0.227912 0.00225816 0
0.236781 0.00490603 0
0.144803 -0.02269 0
0.187974 -0.0112269 0
0.236824 0.003196 0
0.233071 0.0093778 0
0.196839 -0.00536771 0
0.21347 -0.000739129 0
0.234435 0.00574363 0
0.199348 -0.0053542 0
0.231325 0.00985447 0
0.177491 -0.0192091 0
0.231309 0.00946771 0
0.218148 -0.00119186 0
0.232918 0.00680693 0
0.231294 0.00908742 0
0.231272 0.00856466 0
0.182684 -0.0175686 0
0.2364 0.00161269 0
0.231251 0.0080519 0
0.236768 0.000843708 0
0.234265 0.00368057 0
0.203001 -0.00549131 0
0.231221 0.00734869 0
0.222305 -0.0018749 0
0.235264 0.00173063 0
0.231191 0.00666185 0
0.23391 -0.000693354 0
0.194625 -0.00943618 0
0.194972 -0.00946094 0
0.231148 0.00572879 0
0.232712 0.00357141 0
0.189257 -0.0140037 0
0.195343 -0.0094819 0
0.195897 -0.00951928 0
0.231106 0.0048232 0
0.234049 0.00110493 0
0.208462 -0.0059059 0
0.19649 -0.00955252 0
0.226786 -0.00308466 0
0.235959 -0.0014609 0
0.197381 -0.00960806 0
0.186643 -0.0172288 0
0.231049 0.0036116 0
0.17335 -0.0226377 0
0.198299 -0.00967323 0
0.230993 0.00244461 0
0.199623 -0.00979104 0
0.191988 -0.0139123 0
0.0604366 -0.011622 0
0.233829 -0.00133682 0
0.183543 -0.0199832 0
0.230006 -0.0045052 0
0.229028 0.00421567 0
0.232435 -0.000372067 0
0.200977 -0.0099322 0
0.230917 0.000913693 0
0.216103 -0.00690459 0
0.229006 0.00348149 0
0.110067 -0.0196627 0
0.202955 -0.0101623 0
0.228976 0.00251108 0
0.234581 -0.00438934 0
0.230843 -0.000553342 0
0.234927 -0.00516756 0
0.228933 0.00122509 0
0.190533 -0.0173215 0
0.205029 -0.0104287 0
0.195389 -0.013925 0
0.233531 -0.00436349 0
0.232412 -0.00659162 0
0.195802 -0.0140683 0
0.230747 -0.00244327 0
0.228873 -0.00046484 0
0.196543 -0.0142536 0
0.208015 -0.0108672 0
0.232054 -0.00513474 0
0.224522 -0.00905951 0
0.197763 -0.0145154 0
0.184306 -0.0224783 0
0.230642 -0.00426714 0
0.211098 -0.0114 0
0.233184 -0.00727108 0
0.228788 -0.0026518 0
0.23332 -0.008722 0
0.174284 -0.0256143 0
0.22666 -0.00106054 0
0.199646 -0.0149242 0
0.226656 -0.00141293 0
0.226652 -0.00175938 0
0.226647 -0.00222051 0
0.230494 -0.00659437 0
0.179379 -0.0250622 0
0.188251 -0.0222501 0
0.215155 -0.0122947 0
0.226642 -0.00267316 0
0.191582 -0.0206099 0
0.22867 -0.00544115 0
0.226635 -0.0032801 0
0.202481 -0.0155948 0
0.226627 -0.00387482 0
0.196083 -0.0182567 0
0.196244 -0.0183416 0
0.196409 -0.0184259 0
0.232661 -0.010856 0
0.233058 -0.0115184 0
0.226617 -0.00467129 0
0.230322 -0.00885898 0
0.21892 -0.0133914 0
0.196651 -0.018552 0
0.196907 -0.0186758 0
0.226605 -0.00545103 0
0.184918 -0.0249629 0
0.230228 -0.0128892 0
0.231454 -0.0109057 0
0.197312 -0.0188495 0
0.22659 -0.00648909 0
0.197742 -0.0190216 0
0.228494 -0.00897985 0
0.2068 -0.0167062 0
0.198387 -0.0192687 0
0.226571 -0.00750658 0
0.223036 -0.0150952 0
0.19425 -0.022058 0
0.230067 -0.0117159 0
0.199056 -0.0195226 0
0 0 0
0.232067 -0.0142766 0
0.226541 -0.00885208 0
0.200028 -0.0198928 0
0.174923 -0.0285817 0
0.224025 -0.0070043 0
0.146031 -0.027634 0
0.226503 -0.0101749 0
0.192519 -0.0244709 0
0.201043 -0.0202795 0
0.224022 -0.00769719 0
0.226059 -0.0169947 0
0.110403 -0.0213567 0
0.229774 -0.0144867 0
0.224016 -0.00858487 0
0.185419 -0.0275581 0
0.21307 -0.0185881 0
0.228199 -0.0134317 0
0.202503 -0.0208421 0
0.226437 -0.0119052 0
0.196976 -0.0232082 0
0.224007 -0.00974071 0
0.197207 -0.0234036 0
0.197574 -0.0236884 0
0.204062 -0.0214364 0
0.230815 -0.0183533 0
0.226358 -0.0136054 0
0.230459 -0.0177459 0
0.223989 -0.0112572 0
0.18941 -0.0278706 0
0.198146 -0.0240986 0
0.228281 -0.0196219 0
0.229337 -0.0178944 0
0.206299 -0.0223033 0
0.223954 -0.0132475 0
0.226236 -0.0157978 0
0.19903 -0.0246884 0
0.220422 -0.0217624 0
0.185761 -0.0301438 0
0.180417 -0.0308932 0
0.193144 -0.0282946 0
0.227687 -0.0189034 0
0.208674 -0.0232515 0
0.175331 -0.0315539 0
0.22131 -0.0126988 0
0.200334 -0.025555 0
0.226093 -0.017941 0
0.221314 -0.0130509 0
0.223886 -0.015844 0
0.228992 -0.0222559 0
0.221318 -0.0133993 0
0.228825 -0.0211744 0
0.221321 -0.0138454 0
0.221324 -0.0142872 0
0.221327 -0.0148638 0
0.197522 -0.0280437 0
0.211848 -0.0246646 0
0.197643 -0.0281429 0
0.197764 -0.0282426 0
0.221327 -0.0154349 0
0.197936 -0.0283904 0
0.202308 -0.0268277 0
0.225875 -0.0206455 0
0.198106 -0.028539 0
0.221326 -0.016188 0
0.19835 -0.028756 0
0.223757 -0.019186 0
0.221321 -0.0169337 0
0.198592 -0.0289746 0
0.198937 -0.0292896 0
0.185969 -0.0328681 0
0.214962 -0.0262531 0
0.221312 -0.0179188 0
0.228484 -0.0256089 0
0.228088 -0.025137 0
0.199281 -0.029609 0
0.225621 -0.0232753 0
0.221298 -0.0188933 0
0.225618 -0.0266845 0
0.195587 -0.0313831 0
0.199759 -0.0300646 0
0.226813 -0.0254377 0
0.205333 -0.0287186 0
0.221274 -0.0201747 0
0.193539 -0.0327116 0
0.200232 -0.0305303 0
0.175477 -0.0345172 0
0.223515 -0.0233964 0
0.110356 -0.0229892 0
0.221243 -0.0214385 0
0.21845 -0.0285374 0
0.189936 -0.0341625 0
0.200877 -0.0311867 0
0.225246 -0.026517 0
0.218097 -0.019308 0
0.227256 -0.0289124 0
0.221191 -0.0230829 0
0.218102 -0.0200521 0
0.201521 -0.0318632 0
0.186014 -0.0355803 0
0.218106 -0.0209737 0
0.197853 -0.0335471 0
0.198053 -0.0337497 0
0.221127 -0.0246988 0
0.221131 -0.0309989 0
0.209812 -0.0315693 0
0.218107 -0.0221423 0
0.19835 -0.0340516 0
0.202502 -0.0327712 0
0.224816 -0.0296512 0
0.198778 -0.034496 0
0.180632 -0.0367306 0
0.223082 -0.0285748 0
0.218099 -0.0236448 0
0.221026 -0.0267691 0
0.203518 -0.0337107 0
0.199376 -0.0351432 0
0.145926 -0.0326927 0
0.225719 -0.0332902 0
0.193565 -0.0370748 0
0.218076 -0.0255848 0
0.225384 -0.0329867 0
0.175402 -0.0374857 0
0.220905 -0.0287963 0
0.223109 -0.0342433 0
0.200185 -0.0360778 0
0.204956 -0.0350036 0
0.185897 -0.038455 0
0.224192 -0.0334151 0
0.218021 -0.0280799 0
0 0 0
0.220718 -0.0313468 0
0.215499 -0.0358504 0
0.214738 -0.0258311 0
0.201237 -0.0374197 0
0.206468 -0.0363708 0
0.214742 -0.0262295 0
0.214745 -0.026625 0
0.060218 -0.0131103 0
0.197681 -0.038958 0
0.214748 -0.0271081 0
0.222327 -0.034769 0
0.197776 -0.0390641 0
0.19787 -0.0391706 0
0.21475 -0.0275875 0
0.22361 -0.0374462 0
0.198005 -0.0393283 0
0.217908 -0.0312552 0
0.220497 -0.033833 0
0.214752 -0.0281881 0
0.19814 -0.0394869 0
0.223466 -0.0370243 0
0.198331 -0.0397184 0
0.214752 -0.0287837 0
0.198521 -0.0399518 0
0.208514 -0.0382903 0
0.21475 -0.0295431 0
0.202613 -0.0393316 0
0.198787 -0.0402878 0
0.189611 -0.0411742 0
0.109868 -0.0247774 0
0.214746 -0.0302955 0
0.185614 -0.0413129 0
0.199049 -0.0406277 0
0.17509 -0.0404428 0
0.214737 -0.0312639 0
0.199409 -0.0411104 0
0.220169 -0.0368968 0
0.193202 -0.0420265 0
0.195327 -0.0418877 0
0.214724 -0.0322219 0
0.199759 -0.0416003 0
0.217693 -0.0352342 0
0.21063 -0.0403816 0
0.2147 -0.0334567 0
0.222838 -0.041419 0
0.200229 -0.0422858 0
0.222447 -0.0412846 0
0.180062 -0.0425783 0
0.204444 -0.042059 0
0.219871 -0.0419796 0
0.21467 -0.0346762 0
0.200677 -0.0429838 0
0.219786 -0.0398707 0
0.221066 -0.0419764 0
0.214621 -0.0362399 0
0.20126 -0.0439423 0
0.213059 -0.0432803 0
0.185132 -0.0443549 0
0.210647 -0.0334144 0
0.217302 -0.0401213 0
0.196957 -0.0450447 0
0.21456 -0.0377808 0
0.210653 -0.0342773 0
0.197113 -0.0452597 0
0.201816 -0.0449217 0
0.197342 -0.0455796 0
0.174565 -0.0433976 0
0.210655 -0.0352969 0
0.219235 -0.0434528 0
0.221308 -0.045349 0
0.197669 -0.0460487 0
0.214464 -0.0397364 0
0.210653 -0.0365349 0
0.202512 -0.0462493 0
0.206816 -0.0459793 0
0.198121 -0.0467277 0
0.192416 -0.046902 0
0.215097 -0.0463988 0
0.21064 -0.0380689 0
0.214349 -0.0416578 0
0.198731 -0.0476983 0
0.203164 -0.0476121 0
0.218604 -0.0469152 0
0.21061 -0.0399928 0
0.18448 -0.0473748 0
0.216625 -0.0459878 0
0.214174 -0.0440612 0
0.199525 -0.0490699 0
0.108994 -0.02643 0
0.144507 -0.037829 0
0.219374 -0.0499588 0
0.20395 -0.0494387 0
0.188185 -0.0489157 0
0.210547 -0.0424152 0
0.219057 -0.050121 0
0.216543 -0.0504101 0
0.173825 -0.0463333 0
0.213968 -0.0464145 0
0.200513 -0.0509881 0
0.217714 -0.0509877 0
0.195718 -0.050956 0
0.206268 -0.0409641 0
0.195789 -0.0510651 0
0.19586 -0.0511746 0
0.204646 -0.0513287 0
0.178745 -0.048426 0
0.206271 -0.0414342 0
0.209917 -0.0515455 0
0.195963 -0.0513364 0
0.210427 -0.0454548 0
0.196066 -0.0514988 0
0.206274 -0.0419019 0
0.196212 -0.0517352 0
0.206276 -0.0424461 0
0.196358 -0.0519728 0
0.213665 -0.0493072 0
0.206277 -0.0429872 0
0.196561 -0.0523136 0
0.206276 -0.0436343 0
0.196762 -0.052657 0
0.18358 -0.0505929 0
0.206274 -0.0442774 0
0.191087 -0.0523108 0
0.216746 -0.0543548 0
0.197037 -0.0531421 0
0.215497 -0.0528506 0
0.206269 -0.0450642 0
0.201664 -0.0536467 0
0.197305 -0.0536321 0
0.205482 -0.0538429 0
0.210208 -0.0492312 0
0.20626 -0.0458455 0
0.213312 -0.0521279 0
0.21669 -0.054901 0
0.192945 -0.0534133 0
0 0 0
0.197662 -0.0543148 0
0.206246 -0.0468168 0
0.172885 -0.0492568 0
0.198007 -0.055007 0
0.206227 -0.0477804 0
0.206197 -0.0489887 0
0.198451 -0.0559577 0
0.206306 -0.0564707 0
0.212806 -0.0555274 0
0.206161 -0.0501856 0
0.209826 -0.0538534 0
0.19887 -0.0569266 0
0.202869 -0.0573124 0
0.215737 -0.0591122 0
0.182511 -0.0537786 0
0.206103 -0.0516888 0
0.215327 -0.0594465 0
0.212647 -0.0590337 0
0.107656 -0.0282577 0
0.199388 -0.0582405 0
0.1938 -0.0574247 0
0.206035 -0.053175 0
0.193926 -0.0576446 0
0.212228 -0.0588302 0
0.19411 -0.0579709 0
0.200931 -0.0496481 0
0.20735 -0.0599025 0
0.213712 -0.0606874 0
0.19437 -0.0584482 0
0.199859 -0.0595878 0
0.205932 -0.0550332 0
0.200936 -0.0506872 0
0.189321 -0.0576006 0
0.171753 -0.05215 0
0.19473 -0.0591366 0
0.200935 -0.0518618 0
0.176712 -0.0542567 0
0.209181 -0.0594031 0
0.185417 -0.0573298 0
0.205811 -0.0568657 0
0.19521 -0.0601166 0
0.200396 -0.061392 0
0.200926 -0.0532256 0
0.213835 -0.0637725 0
0.20384 -0.0623368 0
0.211429 -0.0627243 0
0.200905 -0.0548465 0
0.195826 -0.0614949 0
0.181147 -0.057164 0
0.208248 -0.0635813 0
0.205633 -0.0591348 0
0.20084 -0.0632532 0
0.141804 -0.0429571 0
0.200861 -0.0568075 0
0.205426 -0.061366 0
0.196572 -0.0634126 0
0.0582062 -0.0145696 0
0.210531 -0.066491 0
0.200782 -0.0592061 0
0.170433 -0.0550177 0
0.201278 -0.065694 0
0.208136 -0.0659203 0
0.205129 -0.0640905 0
0.211445 -0.0685077 0
0.191361 -0.0636757 0
0.191418 -0.0637867 0
0.191475 -0.063898 0
0.191558 -0.0640624 0
0.208608 -0.0682978 0
0.19164 -0.0642272 0
0.197401 -0.0660533 0
0.210999 -0.0693394 0
0.191759 -0.0644671 0
0.200643 -0.0621502 0
0.191876 -0.0647081 0
0.19204 -0.0650531 0
0.186909 -0.0633192 0
0.179617 -0.0605001 0
0.19522 -0.0584048 0
0.201551 -0.0682048 0
0.1922 -0.0654003 0
0.105958 -0.0298561 0
0.204789 -0.0667601 0
0.195222 -0.0589796 0
0.204395 -0.0691783 0
0.19242 -0.0658897 0
0.195224 -0.0595525 0
0.209308 -0.07082 0
0.192633 -0.0663834 0
0.195223 -0.0601896 0
0.195221 -0.0608244 0
0.192915 -0.0670688 0
0.200406 -0.0657522 0
0.195216 -0.0615486 0
0.188194 -0.0656175 0
0.193185 -0.0677621 0
0.195209 -0.0622699 0
0.198194 -0.0696472 0
0.204313 -0.0699651 0
0.173988 -0.0600422 0
0.195197 -0.0631127 0
0.168947 -0.0578405 0
0.208216 -0.0730783 0
0.201682 -0.0714241 0
0.193528 -0.0687099 0
0.195182 -0.0639515 0
0.206502 -0.073375 0
0.193847 -0.0696715 0
0.195159 -0.0649516 0
0.207917 -0.0749927 0
0 0 0
0.195132 -0.0659462 0
0.200014 -0.0701179 0
0.203773 -0.0730921 0
0.194234 -0.070966 0
0.195091 -0.0671493 0
0.177748 -0.0640205 0
0.201614 -0.0747055 0
0.195043 -0.0683443 0
0.194579 -0.0722831 0
0.181128 -0.0662585 0
0.198745 -0.0744614 0
0.194974 -0.069802 0
0.188152 -0.0703171 0
0.188258 -0.0705387 0
0.188412 -0.070867 0
0.184067 -0.0688529 0
0.203035 -0.076773 0