# vtk DataFile Version 3.0
File generated from DClib
ASCII

DATASET UNSTRUCTURED_GRID
POINTS 1909 float
50 0 0 
48.75 0 0 
50 1.66667 0 
47.5 0 0 
50 3.33333 0 
46.25 0 0 
50 5 0 
45 0 0 
43.75 0 0 
50 6.66667 0 
43 2 0 
42.5 0 0 
50 8.33333 0 
43 4.66667 0 
41.25 0 0 
41.075 2 0 
50 10 0 
40 0 0 
43 7.33333 0 
39.15 2 0 
38.75 0 0 
43 10 0 
37.5 0 0 
37.225 2 0 
36.25 0 0 
36 4 0 
35.3 2 0 
36 5 0 
35 0 0 
35.325 4 0 
36 6 0 
36 7 0 
34.65 4 0 
36 8 0 
33.75 0 0 
33.975 4 0 
36 9 0 
33.375 2 0 
33.3 4 0 
36 10 0 
32.5 0 0 
32.625 4 0 
33 6 0 
31.95 4 0 
33 7.45455 0 
31.45 2 0 
31.25 0 0 
31.95 6 0 
33 8.79545 0 
31.275 4 0 
33 10 0 
30.6 4 0 
30 0 0 
30.9 6 0 
29.925 4 0 
29.525 2 0 
29.85 6 0 
29.25 4 0 
28.75 0 0 
30 8 0 
30 8.45455 0 
28.575 4 0 
29.625 8 0 
30 8.90909 0 
28.8 6 0 
30 9.25 0 
29.782 8.90909 0 
30 9.59091 0 
29.9487 9.59091 0 
29.25 8 0 
29.7462 9.25 0 
30 9.79545 0 
29.897 9.59091 0 
29.564 8.90909 0 
29.9547 9.79545 0 
29.3462 8.45455 0 
29.84 9.59091 0 
30 10 0 
29.8975 9.79545 0 
29.9882 10 0 
29.9902 10.0098 0 
29.7827 9.59091 0 
29.9765 10 0 
29.9804 10.0196 0 
29.9667 10.0098 0 
29.9591 10 0 
29.9686 10.0196 0 
29.9659 10.0341 0 
29.9569 10.0196 0 
29.9418 10 0 
29.9395 10.0196 0 
29.9515 10.0485 0 
29.932 10.0098 0 
29.9424 10.0341 0 
29.8241 9.79545 0 
29.7181 9.59091 0 
29.9166 10 0 
29.9397 10.0485 0 
29.9222 10.0196 0 
29.9279 10.0485 0 
29.9305 10.0695 0 
29.8914 10 0 
29.9077 10.0341 0 
27.9 4 0 
29.897 10.0196 0 
29.9106 10.0485 0 
29.8817 10.0098 0 
29.907 10.0695 0 
29.8933 10.0485 0 
29.9095 10.0905 0 
29.8719 10.0196 0 
27.6 2 0 
29.8556 10 0 
29.8978 10.0905 0 
29.6531 9.59091 0 
29.3437 8.90909 0 
27.5 0 0 
29.8681 10.0485 0 
29.886 10.0905 0 
29.8574 10.0341 0 
29.4839 9.25 0 
29.8723 10.0695 0 
29.7289 9.79545 0 
29.836 10.0196 0 
29.8687 10.0905 0 
29.8197 10 0 
29.8797 10.1203 0 
29.843 10.0485 0 
29.8513 10.0905 0 
29.81 10.0098 0 
29.8561 10.1203 0 
29.8002 10.0196 0 
29.8221 10.0695 0 
29.8072 10.0485 0 
29.8262 10.0905 0 
29.5782 9.59091 0 
29.8498 10.1502 0 
29.7695 10 0 
29.7858 10.0341 0 
29.838 10.1502 0 
29.8215 10.1203 0 
29.8011 10.0905 0 
29.8262 10.1502 0 
29.7714 10.0485 0 
28.875 8 0 
29.75 10.0196 0 
29.8089 10.1502 0 
29.7654 10.0905 0 
29.7193 10 0 
29.7916 10.1502 0 
29.7505 10.0695 0 
29.8079 10.1921 0 
29.7713 10.1203 0 
29.7096 10.0098 0 
29.6047 9.79545 0 
29.503 9.59091 0 
29.7213 10.0485 0 
29.7665 10.1502 0 
29.6999 10.0196 0 
29.7844 10.1921 0 
29.7296 10.0905 0 
29.6856 10.0341 0 
29.7414 10.1502 0 
29.7497 10.1921 0 
29.6503 10 0 
29.7661 10.2339 0 
29.6712 10.0485 0 
29.6999 10.1203 0 
29.7543 10.2339 0 
29.6796 10.0905 0 
29.7057 10.1502 0 
29.7425 10.2339 0 
29.1235 8.90909 0 
29.6309 10.0196 0 
29.6504 10.0695 0 
29.4146 9.59091 0 
29.7252 10.2339 0 
29.6996 10.1921 0 
29.6701 10.1502 0 
29.7079 10.2339 0 
29.6296 10.0905 0 
29.5813 10 0 
29.6023 10.0485 0 
29.5716 10.0098 0 
29.6828 10.2339 0 
29.7086 10.2914 0 
29.2101 9.25 0 
29.562 10.0196 0 
29.6201 10.1502 0 
29.6578 10.2339 0 
29.4428 9.79545 0 
29.5999 10.1203 0 
29.6849 10.2914 0 
29.6283 10.1921 0 
29.5477 10.0341 0 
29.3259 9.59091 0 
29.5608 10.0905 0 
29.5335 10.0485 0 
29.6221 10.2339 0 
29.6503 10.2914 0 
29.5702 10.1502 0 
29.4881 10 0 
29.5128 10.0695 0 
29.6511 10.3489 0 
29.5866 10.2339 0 
29.6392 10.3489 0 
29.4689 10.0196 0 
29.6002 10.2914 0 
29.6273 10.3489 0 
29.4921 10.0905 0 
29.61 10.3489 0 
29.5286 10.1921 0 
29.5016 10.1502 0 
29.5368 10.2339 0 
29.5926 10.3489 0 
29.4405 10.0485 0 
29.2199 9.59091 0 
29.4626 10.1203 0 
29.3949 10 0 
28.9 8.90909 0 
29.5676 10.3489 0 
29.5291 10.2914 0 
29.3853 10.0098 0 
28.6923 8.45455 0 
29.487 10.2339 0 
29.5426 10.3489 0 
29.3758 10.0196 0 
29.5734 10.4266 0 
29.4331 10.1502 0 
29.3993 10.0905 0 
28.5 8 0 
29.3617 10.0341 0 
29.5496 10.4266 0 
29.5071 10.3489 0 
29.2327 9.79545 0 
29.3475 10.0485 0 
29.1136 9.59091 0 
29.4187 10.2339 0 
29.5148 10.4266 0 
29.4716 10.3489 0 
29.3918 10.1921 0 
29.3271 10.0695 0 
29.4298 10.2914 0 
29.2714 10 0 
29.3406 10.1502 0 
28.9208 9.25 0 
29.3066 10.0905 0 
29.4648 10.4266 0 
29.422 10.3489 0 
29.4958 10.5042 0 
29.2524 10.0196 0 
27.75 6 0 
29.3504 10.2339 0 
29.4837 10.5042 0 
29.4718 10.5042 0 
29.2774 10.1203 0 
29.4543 10.5042 0 
29.3724 10.3489 0 
29.2244 10.0485 0 
29.4369 10.5042 0 
29.3938 10.4266 0 
28.9853 9.59091 0 
29.2481 10.1502 0 
28.6766 8.90909 0 
29.4119 10.5042 0 
29.2934 10.2914 0 
27.225 4 0 
29.148 10 0 
29.2582 10.2339 0 
29.1837 10.0905 0 
29.3869 10.5042 0 
29.1385 10.0098 0 
29.3044 10.3489 0 
29.1291 10.0196 0 
29.2072 10.1921 0 
29.3514 10.5042 0 
29.1152 10.0341 0 
29.3929 10.6071 0 
29.2949 10.4266 0 
29.1013 10.0485 0 
29.3686 10.6071 0 
29.316 10.5042 0 
29.2364 10.3489 0 
28.9623 9.79545 0 
29.1257 10.1502 0 
29.1662 10.2339 0 
29.0811 10.0695 0 
28.8566 9.59091 0 
29.3336 10.6071 0 
29.2666 10.5042 0 
29.0609 10.0905 0 
28.9875 10 0 
29.2835 10.6071 0 
29.1448 10.3489 0 
29.0321 10.1203 0 
29.2173 10.5042 0 
29.1098 10.2914 0 
28.125 8 0 
28.9688 10.0196 0 
29.1594 10.4266 0 
28.611 9.25 0 
29.29 10.71 0 
28.4486 8.90909 0 
29.0443 10.2339 0 
29.0033 10.1502 0 
29.2777 10.71 0 
28.9413 10.0485 0 
29.2128 10.6071 0 
29.2655 10.71 0 
29.1497 10.5042 0 
29.2478 10.71 0 
28.7003 9.59091 0 
29.0533 10.3489 0 
29.2303 10.71 0 
28.9629 10.1921 0 
28.9013 10.0905 0 
29.2051 10.71 0 
29.0822 10.5042 0 
29.1801 10.71 0 
28.827 10 0 
29.1144 10.6071 0 
28.8177 10.0098 0 
28.9225 10.2339 0 
28.8085 10.0196 0 
29.1447 10.71 0 
28.7949 10.0341 0 
28.8443 10.1502 0 
28.977 10.4266 0 
28.9322 10.3489 0 
29.1094 10.71 0 
28.7813 10.0485 0 
28.9912 10.5042 0 
29.1562 10.8438 0 
28.5436 9.59091 0 
28.7615 10.0695 0 
28.8669 10.2914 0 
29.1313 10.8438 0 
28.6184 9.79545 0 
29.0602 10.71 0 
28.2207 8.90909 0 
28.7418 10.0905 0 
28.0378 8.45455 0 
28.9798 10.6071 0 
29.0958 10.8438 0 
29.0112 10.71 0 
28.9005 10.5042 0 
28.7136 10.1203 0 
28.7644 10.2339 0 
28.8113 10.3489 0 
29.0454 10.8438 0 
28.6223 10 0 
28.6854 10.1502 0 
28.2746 9.25 0 
28.9441 10.71 0 
28.6042 10.0196 0 
27.75 8 0 
28.9747 10.8438 0 
28.6459 10.1921 0 
28.5773 10.0485 0 
29.0225 10.9775 0 
28.3532 9.59091 0 
28.7804 10.5042 0 
28.736 10.4266 0 
28.8772 10.71 0 
29.0097 10.9775 0 
28.9971 10.9775 0 
28.799 10.6071 0 
28.9791 10.9775 0 
28.5384 10.0905 0 
28.6064 10.2339 0 
28.6543 10.3489 0 
28.9611 10.9775 0 
28.8769 10.8438 0 
27.9867 8.90909 0 
26.25 0 0 
28.9358 10.9775 0 
28.7871 10.71 0 
28.9106 10.9775 0 
28.6607 10.5042 0 
28.4177 10 0 
26.55 4 0 
28.552 10.2914 0 
28.483 10.1502 0 
28.4087 10.0098 0 
28.8751 10.9775 0 
28.3998 10.0196 0 
28.3866 10.0341 0 
28.8399 10.9775 0 
28.6974 10.71 0 
28.3735 10.0485 0 
28.1625 9.59091 0 
28.7436 10.8438 0 
28.4976 10.3489 0 
28.3543 10.0695 0 
28.791 10.9775 0 
28.4052 10.2339 0 
28.3352 10.0905 0 
28.8519 11.1481 0 
28.1869 9.79545 0 
28.5607 10.6071 0 
28.5053 10.5042 0 
28.7423 10.9775 0 
28.8258 11.1481 0 
28.308 10.1203 0 
28.5787 10.71 0 
27.904 9.25 0 
28.7893 11.1481 0 
28.424 10.4266 0 
27.7528 8.90909 0 
28.2807 10.1502 0 
28.6758 10.9775 0 
27.375 8 0 
28.7383 11.1481 0 
28.1619 10 0 
28.5649 10.8438 0 
28.2425 10.1921 0 
28.6096 10.9775 0 
28.1444 10.0196 0 
28.298 10.3489 0 
28.4605 10.71 0 
26.7 6 0 
27.9315 9.59091 0 
28.3503 10.5042 0 
28.6676 11.1481 0 
28.1187 10.0485 0 
28.2042 10.2339 0 
28.5207 10.9775 0 
28.0813 10.0905 0 
28.6814 11.3186 0 
27.3818 8.45455 0 
28.6679 11.3186 0 
28.1516 10.2914 0 
28.5703 11.1481 0 
28.6544 11.3186 0 
28.6358 11.3186 0 
27.5109 8.90909 0 
28.3072 10.71 0 
28.6173 11.3186 0 
28.2524 10.6071 0 
28.4322 10.9775 0 
28.028 10.1502 0 
28.5915 11.3186 0 
28.0989 10.3489 0 
28.33 10.8438 0 
28.5658 11.3186 0 
28.153 10.5042 0 
27.9061 10 0 
27.8975 10.0098 0 
28.5303 11.3186 0 
28.4384 11.1481 0 
27.7002 9.59091 0 
27.889 10.0196 0 
27.8765 10.0341 0 
28.4949 11.3186 0 
28.3154 10.9775 0 
27.9532 10.2339 0 
27.8639 10.0485 0 
28.0276 10.4266 0 
28.1544 10.71 0 
27.8457 10.0695 0 
27.4909 9.25 0 
28.4463 11.3186 0 
27 8 0 
27.8275 10.0905 0 
28.3979 11.3186 0 
27.8015 10.1203 0 
27.6542 9.79545 0 
25.675 2 0 
28.1991 10.9775 0 
27.2691 8.90909 0 
27.9563 10.5042 0 
28.4682 11.5318 0 
28.2625 11.1481 0 
27.7755 10.1502 0 
28.3322 11.3186 0 
27.8502 10.3489 0 
28.4401 11.5318 0 
25.875 4 0 
27.7391 10.1921 0 
28.4019 11.5318 0 
28.0268 10.8438 0 
28.2668 11.3186 0 
27.9602 10.71 0 
28.3498 11.5318 0 
27.4223 9.59091 0 
27.7026 10.2339 0 
27.5927 10 0 
28.0486 10.9775 0 
27.8616 10.6071 0 
27.5762 10.0196 0 
28.1794 11.3186 0 
28.2786 11.5318 0 
27.5519 10.0485 0 
27.6524 10.2914 0 
28.0319 11.1481 0 
27.7108 10.5042 0 
27.5167 10.0905 0 
27.0169 8.90909 0 
28.0924 11.3186 0 
27.6021 10.3489 0 
27.8988 10.9775 0 
28.1818 11.5318 0 
27.7667 10.71 0 
26.625 8 0 
28.255 11.745 0 
27.4664 10.1502 0 
28.2402 11.745 0 
28.2256 11.745 0 
28.2059 11.745 0 
27.978 11.3186 0 
26.7234 8.45455 0 
27.0259 9.25 0 
27.5342 10.4266 0 
28.1863 11.745 0 
27.1442 9.59091 0 
28.0516 11.5318 0 
28.1598 11.745 0 
27.3959 10.2339 0 
28.1334 11.745 0 
27.2793 10 0 
27.2714 10.0098 0 
27.2635 10.0196 0 
27.7086 10.9775 0 
27.6431 10.8438 0 
28.0975 11.745 0 
27.8643 11.3186 0 
27.4661 10.5042 0 
27.2518 10.0341 0 
27.2401 10.0485 0 
28.0617 11.745 0 
26.7648 8.90909 0 
27.5255 10.71 0 
27.7353 11.1481 0 
27.2231 10.0695 0 
28.0133 11.745 0 
27.2061 10.0905 0 
27.8791 11.5318 0 
27.2986 10.3489 0 
27.1818 10.1203 0 
27.9651 11.745 0 
27.3758 10.6071 0 
27.0077 9.79545 0 
27.7174 11.3186 0 
27.1576 10.1502 0 
25 0 0 
27.5193 10.9775 0 
27.9003 11.745 0 
27.1236 10.1921 0 
26.25 8 0 
27.9939 12.0061 0 
25.65 6 0 
27.8359 11.745 0 
26.8136 9.59091 0 
27.0896 10.2339 0 
27.9626 12.0061 0 
27.2853 10.71 0 
25.2 4 0 
27.5713 11.3186 0 
27.9218 12.0061 0 
26.4998 8.90909 0 
27.167 10.5042 0 
27.6541 11.5318 0 
27.0427 10.2914 0 
27.7503 11.745 0 
26.9033 10 0 
27.8677 12.0061 0 
26.8882 10.0196 0 
26.8659 10.0485 0 
26.9958 10.3489 0 
27.2836 10.9775 0 
27.6652 11.745 0 
27.3609 11.1481 0 
27.7955 12.0061 0 
26.499 9.25 0 
[...]
POINT_DATA 1909
SCALARS phi float 1
LOOKUP_TABLE default
VECTORS Displacement float
0 0 0
0 0 0
0 -0.00589331 0
0 0 0
0 -0.00814896 0
0 0 0
0 -0.00705773 0
0 0 0
0 0 0
0 -0.00295416 0
0.0167247 -0.00510725 0
0 0 0
0 0.00389991 0
0.0324286 -0.00303646 0
0 0 0
0.0226992 -0.0050014 0
0 0.0126966 0
0 0 0
0.0430747 0.0071918 0
0.0292676 -0.005074 0
0 0 0
0.0487561 0.0234164 0
0 0 0
0.0362925 -0.00544902 0
0 0 0
0.068768 -0.00336173 0
0.0433858 -0.00613137 0
0.0810288 0.000817153 0
0 0 0
0.0737776 -0.00371248 0
0.0898171 0.0064461 0
0.0954844 0.0131826 0
0.0787004 -0.00415144 0
0.0988881 0.0202794 0
0 0 0
0.0835985 -0.00485385 0
0.101562 0.0277083 0
0.0500943 -0.00707787 0
0.0883604 -0.00565937 0
0.10409 0.0364357 0
0 0 0
0.0928949 -0.00663371 0
0.118714 0.0033865 0
0.0972028 -0.00770722 0
0.130037 0.015441 0
0.0559959 -0.00823363 0
0 0 0
0.128708 -0.000552766 0
0.134893 0.0317785 0
0.10119 -0.00890192 0
0.135813 0.0550948 0
0.104861 -0.0101853 0
0 0 0
0.137151 -0.00467023 0
0.10817 -0.0115574 0
0.0607408 -0.00955378 0
0.144278 -0.00914597 0
0.111093 -0.0130117 0
0 0 0
0.168836 0.00156601 0
0.173701 0.00535556 0
0.113638 -0.0145275 0
0.172339 -0.00146566 0
0.178456 0.0101426 0
0.15006 -0.013957 0
0.182019 0.0169815 0
0.181022 0.00717081 0
0.185684 0.0267167 0
0.186468 0.0244107 0
0.17543 -0.00457708 0
0.185404 0.0117381 0
0.186569 0.0334528 0
0.187226 0.0224851 0
0.183333 0.00451271 0
0.187325 0.0311204 0
0.180209 -0.00102838 0
0.187971 0.0205463 0
0.186833 0.0411512 0
0.188324 0.0284148 0
0.18718 0.0412834 0
0.258426 0.0669752 0
0.188663 0.0188361 0
0.187575 0.0412403 0
0.309597 0.0844158 0
0.256795 0.0660064 0
0.188187 0.0411273 0
0.307911 0.0834458 0
0.313027 0.0839817 0
0.305983 0.0822726 0
0.188852 0.0408743 0
0.30272 0.0806265 0
0.313153 0.0830046 0
0.253929 0.0640352 0
0.311471 0.0820319 0
0.189677 0.025483 0
0.189364 0.0171019 0
0.189834 0.0401857 0
0.313011 0.0821579 0
0.299418 0.078833 0
0.312891 0.0813862 0
0.313568 0.081943 0
0.190849 0.0394503 0
0.307939 0.0793877 0
0.115752 -0.0161296 0
0.294803 0.0761565 0
0.312494 0.0804037 0
0.250124 0.0604748 0
0.313355 0.080502 0
0.311939 0.0793205 0
0.313105 0.0807613 0
0.290394 0.0734845 0
0.0640485 -0.0110106 0
0.192233 0.0379616 0
0.313043 0.0800558 0
0.190006 0.0155078 0
0.185579 0.00203823 0
0 0 0
0.310741 0.0776124 0
0.312962 0.0793297 0
0.302077 0.0751236 0
0.188431 0.00769997 0
0.312907 0.0782919 0
0.19145 0.0223614 0
0.284766 0.0695227 0
0.312817 0.0781891 0
0.193588 0.0365371 0
0.312521 0.0791295 0
0.309052 0.0757158 0
0.31266 0.0769955 0
0.245548 0.0549027 0
0.312377 0.0775674 0
0.279426 0.0657431 0
0.311537 0.0746408 0
0.306249 0.0727099 0
0.312376 0.0751927 0
0.190693 0.0138369 0
0.311714 0.0773038 0
0.195305 0.0342721 0
0.293559 0.0683648 0
0.311632 0.0764816 0
0.312126 0.075113 0
0.31205 0.0733459 0
0.311548 0.0756401 0
0.30296 0.0696324 0
0.178385 -0.00770639 0
0.272752 0.0605269 0
0.311413 0.0743802 0
0.311344 0.0707224 0
0.196878 0.0321563 0
0.311271 0.073106 0
0.308011 0.0690487 0
0.310551 0.0745984 0
0.311699 0.07143 0
0.240034 0.0473493 0
0.193634 0.0190239 0
0.19133 0.0122511 0
0.298103 0.065206 0
0.311059 0.0712474 0
0.266577 0.0557229 0
0.310393 0.0728613 0
0.310356 0.0680877 0
0.282002 0.0590644 0
0.310841 0.0694043 0
0.310142 0.0702901 0
0.19876 0.029361 0
0.309359 0.0717915 0
0.292959 0.0609205 0
0.310805 0.0662488 0
0.309269 0.070904 0
0.308454 0.0644647 0
0.310525 0.0668181 0
0.309177 0.0700227 0
0.18765 -0.000399294 0
0.259033 0.0496178 0
0.301044 0.0612311 0
0.192071 0.0105516 0
0.309043 0.0687354 0
0.309759 0.0666391 0
0.310215 0.0643227 0
0.30891 0.0674663 0
0.305966 0.0608965 0
0.200358 0.0267413 0
0.285876 0.0552448 0
0.233448 0.0383218 0
0.308721 0.0656613 0
0.307742 0.067907 0
0.191202 0.00391266 0
0.252332 0.0441405 0
0.309667 0.0609929 0
0.308535 0.0639044 0
0.196146 0.0154121 0
0.308413 0.0594473 0
0.307578 0.0661756 0
0.309219 0.0617343 0
0.26746 0.0477303 0
0.192794 0.00892055 0
0.301818 0.0561907 0
0.27884 0.0499262 0
0.308274 0.0614868 0
0.307336 0.0637066 0
0.308988 0.0578379 0
0.202183 0.0236951 0
0.289545 0.0512066 0
0.306153 0.0641185 0
0.308019 0.0591722 0
0.30607 0.0632744 0
0.244454 0.0377008 0
0.306991 0.0603054 0
0.305989 0.0624447 0
0.297037 0.0516379 0
0.305871 0.0612487 0
0.308441 0.0555127 0
0.30755 0.0537903 0
0.307676 0.0560859 0
0.305756 0.0600814 0
0.269663 0.0433599 0
0.193675 0.00711884 0
0.30258 0.0509724 0
0.203634 0.0208082 0
0.189622 -0.00284477 0
0.305592 0.0584373 0
0.306521 0.0558103 0
0.226016 0.0285596 0
0.185489 -0.00728191 0
0.307357 0.0531903 0
0.305433 0.0568475 0
0.237899 0.0320839 0
0.304192 0.0592601 0
0.305537 0.049918 0
0.289893 0.045874 0
0.180975 -0.0109384 0
0.25067 0.0352395 0
0.304045 0.0576874 0
0.305214 0.0546688 0
0.198836 0.0113742 0
0.261005 0.0373536 0
0.194581 0.0053952 0
0.306879 0.0494518 0
0.303833 0.0554785 0
0.305005 0.0525864 0
0.306629 0.0479761 0
0.272959 0.0392883 0
0.305919 0.0501428 0
0.205234 0.0176091 0
0.3018 0.0450594 0
0.193798 9.8907e-05 0
0.282265 0.0403657 0
0.303537 0.0524623 0
0.304721 0.0498183 0
0.302252 0.0546807 0
0.230704 0.0258252 0
0.154424 -0.0190367 0
0.306342 0.0459837 0
0.302187 0.053937 0
0.302123 0.0532078 0
0.291137 0.0406623 0
0.30203 0.0521625 0
0.30445 0.0471997 0
0.250552 0.0303298 0
0.30194 0.0511429 0
0.303137 0.048484 0
0.195676 0.00341867 0
0.297131 0.0403455 0
0.191452 -0.00529621 0
0.301811 0.0497114 0
0.30518 0.0432811 0
0.117474 -0.0177637 0
0.206469 0.0145487 0
0.305135 0.0416433 0
0.271859 0.0336494 0
0.301685 0.048325 0
0.218744 0.0187048 0
0.304094 0.043804 0
0.225302 0.0205431 0
0.301378 0.039065 0
0.301507 0.046422 0
0.233818 0.0226086 0
0.299975 0.0490929 0
0.302618 0.0434172 0
0.241539 0.024195 0
0.299857 0.047727 0
0.301334 0.0445929 0
0.303761 0.0406241 0
0.201508 0.00662214 0
0.28967 0.0345199 0
0.303317 0.0375317 0
0.252221 0.026111 0
0.196796 0.00150905 0
0.299688 0.0458201 0
0.301096 0.0421424 0
0.26154 0.0274171 0
0.207776 0.0110593 0
0.299451 0.0432126 0
0.303308 0.0365824 0
0.2725 0.0284692 0
0.300864 0.0398047 0
0.303619 0.0351788 0
0.183333 -0.0141532 0
0.219986 0.0147714 0
0.301968 0.0371798 0
0.196215 -0.00391968 0
0.297692 0.0438834 0
0.193135 -0.00782126 0
0.299654 0.0324961 0
0.281141 0.0288636 0
0.297644 0.0432424 0
0.23205 0.0173494 0
0.299126 0.0397412 0
0.297597 0.0426127 0
0.300552 0.0367536 0
0.297531 0.0417155 0
0.198129 -0.000731958 0
0.302814 0.0328381 0
0.297465 0.0408371 0
0.289356 0.0284827 0
0.249212 0.0201526 0
0.297369 0.0396053 0
0.300251 0.0338643 0
0.297274 0.0384051 0
0.2088 0.00771257 0
0.29869 0.035259 0
0.213541 0.0092093 0
0.294752 0.0276278 0
0.216684 0.0100198 0
0.297138 0.0367535 0
0.220835 0.010929 0
0.269287 0.0221084 0
0.301203 0.0297536 0
0.301659 0.0282328 0
0.297003 0.0351547 0
0.225202 0.011792 0
0.299862 0.03019 0
0.294994 0.0376618 0
0.199441 -0.00292526 0
0.231989 0.0129995 0
0.298403 0.0258584 0
0.294907 0.0364696 0
0.203993 0.000860887 0
0.296812 0.0330028 0
0.194687 -0.0103426 0
0.238814 0.0140102 0
0.189691 -0.0136597 0
0.298119 0.0296611 0
0.294782 0.0348161 0
0.296623 0.0309363 0
0.2995 0.0267493 0
0.248452 0.0151717 0
0.28654 0.0218139 0
0.299823 0.02393 0
0.294607 0.0325551 0
0.209824 0.00376389 0
0.257323 0.0158933 0
0.198498 -0.00820971 0
0.296362 0.0282239 0
0.214082 0.00484366 0
0.185316 -0.0174232 0
0.294363 0.0295327 0
0.268033 0.0162931 0
0.219518 0.00579112 0
0.292357 0.031846 0
0.200959 -0.00553335 0
0.299034 0.0224837 0
0.299661 0.0212141 0
0.296105 0.0256454 0
0.292321 0.0312793 0
0.292286 0.0307221 0
0.297407 0.0229307 0
0.292235 0.0299386 0
0.228888 0.00711068 0
0.276688 0.0161566 0
0.295941 0.0188456 0
0.292185 0.0291702 0
0.294031 0.0256082 0
0.196094 -0.0129446 0
0 0 0
0.292112 0.028101 0
0.295765 0.0223607 0
0.29204 0.0270571 0
0.298529 0.0185775 0
0.210652 -3.45248e-05 0
0.118742 -0.0195027 0
0.285048 0.0152561 0
0.243926 0.00867177 0
0.211863 0.000227265 0
0.291936 0.0256265 0
0.212985 0.000428638 0
0.214563 0.000665495 0
0.291834 0.0242394 0
0.295441 0.0192797 0
0.216311 0.000916752 0
0.202386 -0.00811061 0
0.293595 0.0206912 0
0.290518 0.0140034 0
0.219204 0.0013136 0
0.291692 0.022377 0
0.263363 0.00958629 0
0.222496 0.00173816 0
0.289213 0.0249891 0
0.206281 -0.00604655 0
0.29663 0.0152146 0
0.297336 0.0139428 0
0.291552 0.020588 0
0.289153 0.0239272 0
0.227778 0.00234032 0
0.29505 0.0154918 0
0.200687 -0.0128162 0
0.289069 0.0224836 0
0.294154 0.0118912 0
0.197355 -0.0155424 0
0.23356 0.00287961 0
0.291365 0.0182466 0
0.187028 -0.0206884 0
0.288953 0.0205356 0
0.211371 -0.00455084 0
0.293052 0.0147891 0
0.242072 0.0034561 0
0.291185 0.0160253 0
0.212596 -0.00445859 0
0.281276 0.00846661 0
0.294721 0.0119986 0
0.157318 -0.024328 0
0.203968 -0.0111882 0
0.295442 0.00970399 0
0.288793 0.0179552 0
0.214563 -0.00436444 0
0.250453 0.00370845 0
0.290956 0.0132005 0
0.218173 -0.0041774 0
0.286117 0.0186121 0
0.19285 -0.0201054 0
0.286094 0.0181094 0
0.261016 0.00357898 0
0.288579 0.0146284 0
0.28607 0.017616 0
0.286039 0.0169381 0
0.198475 -0.0182265 0
0.294282 0.00778925 0
0.286008 0.0162746 0
0.295072 0.00675885 0
0.290745 0.0105558 0
0.225066 -0.00383764 0
0.285966 0.0153663 0
0.269973 0.00297374 0
0.29241 0.00800886 0
0.285924 0.0144814 0
0.291261 0.00476816 0
0.211985 -0.00889403 0
0.21234 -0.00892954 0
0.285866 0.0132826 0
0.288305 0.0104791 0
0.205383 -0.0142433 0
0.212706 -0.00896513 0
0.213282 -0.0090122 0
0.28581 0.0121225 0
0.290483 0.00727296 0
0.237489 -0.00343376 0
0.2139 -0.00905452 0
0.278963 0.00157819 0
0.293753 0.00388771 0
0.214916 -0.00909686 0
0.202745 -0.0178251 0
0.285735 0.0105755 0
0.188378 -0.0239692 0
0.216047 -0.00912872 0
0.285664 0.0090899 0
0.217944 -0.009141 0
0.208585 -0.0140274 0
0.0656813 -0.012583 0
0.290224 0.00417622 0
0.199443 -0.0208978 0
0.284999 -0.000107393 0
0.282662 0.0113952 0
0.287963 0.00546674 0
0.220189 -0.00912133 0
0.285569 0.00714731 0
0.255716 -0.00361439 0
0.28263 0.010458 0
0.1196 -0.0212355 0
0.223973 -0.0090634 0
0.282585 0.00922297 0
0.291646 0.000242364 0
0.28548 0.00529088 0
0.292478 -0.000833114 0
0.282523 0.00759179 0
0.206827 -0.017886 0
0.228452 -0.00900358 0
0.212562 -0.0139353 0
0.289899 0.000349256 0
0.289043 -0.00268611 0
0.213061 -0.0140796 0
0.285364 0.00290617 0
0.282441 0.00545533 0
0.21386 -0.014287 0
0.235404 -0.00903315 0
0.287526 -0.000544615 0
0.274479 -0.00569694 0
0.215177 -0.0145824 0
0.200298 -0.0236615 0
0.285243 0.000609548 0
0.242859 -0.00929022 0
0.289523 -0.00332632 0
0.28233 0.0026992 0
0.290406 -0.00530718 0
0.189456 -0.0272622 0
0.279099 0.00472746 0
0.217524 -0.0149873 0
0.279093 0.0042851 0
0.279087 0.0038504 0
0.27908 0.00327186 0
0.28508 -0.00231512 0
0.194987 -0.0265815 0
0.204534 -0.0233723 0
0.252762 -0.0100407 0
0.279074 0.00270416 0
0.208029 -0.0215029 0
0.282185 -0.000805248 0
0.279065 0.0019429 0
0.222159 -0.0155212 0
0.279056 0.00119729 0
0.213096 -0.0187987 0
0.213287 -0.0188879 0
0.213491 -0.0189738 0
0.288935 -0.00784869 0
0.289823 -0.0087587 0
0.279042 0.000199056 0
0.284889 -0.00516087 0
0.261763 -0.0112509 0
0.213778 -0.0191073 0
0.214074 -0.0192404 0
0.279028 -0.000777637 0
0.200991 -0.0264132 0
0.285556 -0.010502 0
0.286863 -0.00781415 0
0.21452 -0.0194319 0
0.27901 -0.0020771 0
0.214975 -0.0196257 0
0.281981 -0.00524082 0
0.2314 -0.0163188 0
0.215676 -0.019894 0
0.278987 -0.00335016 0
0.271262 -0.0133591 0
0.210923 -0.0230664 0
0.284608 -0.00875258 0
0.216413 -0.0201657 0
0 0 0
0.28824 -0.012168 0
0.278953 -0.00503192 0
0.217614 -0.0205251 0
0.190201 -0.0305529 0
0.275148 -0.00268495 0
0.158725 -0.0297906 0
0.278911 -0.00668533 0
0.209099 -0.0257651 0
0.219003 -0.0208769 0
0.275141 -0.00355046 0
0.277943 -0.0157188 0
0.119987 -0.0231047 0
0.284284 -0.0122408 0
0.275131 -0.00465916 0
0.201565 -0.029287 0
0.247003 -0.0179071 0
0.281652 -0.0108214 0
0.221407 -0.0213325 0
0.278837 -0.00884746 0
0.213925 -0.0242779 0
0.275115 -0.0061017 0
0.214165 -0.024492 0
0.214581 -0.0247928 0
0.224401 -0.0217824 0
0.286634 -0.0173674 0
0.278748 -0.0109733 0
0.285768 -0.0164628 0
0.275091 -0.00799305 0
0.205866 -0.0295821 0
0.215228 -0.0252267 0
0.282577 -0.0190329 0
0.283804 -0.0165389 0
0.229337 -0.0224672 0
0.275048 -0.0104743 0
0.278612 -0.0137165 0
0.216202 -0.0258591 0
0.265687 -0.0213684 0
0.201968 -0.0321517 0
0.196181 -0.0330513 0
0.209839 -0.0299887 0
0.281089 -0.0176979 0
0.235181 -0.0233077 0
0.190686 -0.0338505 0
0.271104 -0.00976685 0
0.217724 -0.0267802 0
0.278453 -0.0164011 0
0.271108 -0.0102049 0
0.274969 -0.0137118 0
0.284122 -0.022277 0
0.271111 -0.0106384 0
0.283249 -0.0206853 0
0.271115 -0.0111931 0
0.271118 -0.0117425 0
0.27112 -0.0124595 0
0.214493 -0.0296167 0
0.243477 -0.0247846 0
0.214626 -0.029724 0
0.214758 -0.0298319 0
0.271121 -0.0131697 0
0.214943 -0.0299927 0
0.220494 -0.028109 0
0.278211 -0.0197927 0
0.215127 -0.0301545 0
0.271118 -0.014106 0
0.215388 -0.0303917 0
0.274823 -0.0178833 0
0.271113 -0.0150334 0
0.215649 -0.0306312 0
0.216015 -0.0309772 0
0.202225 -0.0351712 0
0.251825 -0.0267138 0
0.2711 -0.0162587 0
0.283368 -0.0263937 0
0.282424 -0.0256909 0
0.216379 -0.0313278 0
0.27793 -0.0230938 0
0.271084 -0.0174711 0
0.278098 -0.0276287 0
0.212483 -0.0333558 0
0.216883 -0.0318256 0
0.280124 -0.025926 0
0.22629 -0.0300674 0
0.271055 -0.0190662 0
0.210341 -0.0348713 0
0.217383 -0.0323331 0
0.190874 -0.0371401 0
0.274552 -0.0231472 0
0.119949 -0.0249115 0
0.271019 -0.0206402 0
0.261279 -0.0296995 0
0.206515 -0.0365492 0
0.218125 -0.0330272 0
0.277516 -0.0271675 0
0.266348 -0.0179596 0
0.281465 -0.0304641 0
0.27096 -0.0226892 0
0.266353 -0.0188828 0
0.218911 -0.0337296 0
0.202303 -0.03818 0
0.266356 -0.0200265 0
0.214936 -0.0356874 0
0.215145 -0.0359065 0
0.270888 -0.0247039 0
0.268498 -0.0329481 0
0.237672 -0.0331831 0
0.266355 -0.0214769 0
0.215457 -0.0362328 0
0.220265 -0.0346416 0
0.277038 -0.0311132 0
0.215907 -0.0367125 0
0.196473 -0.0395291 0
0.274069 -0.0296306 0
0.266346 -0.0233424 0
0.270774 -0.0272864 0
0.221863 -0.0355727 0
0.216538 -0.03741 0
0.158647 -0.0353981 0
0.279338 -0.0360402 0
0.210432 -0.0397036 0
0.266318 -0.0257522 0
0.278555 -0.0354819 0
0.190816 -0.0404362 0
0.270638 -0.0298165 0
0.273973 -0.037214 0
0.21739 -0.0384157 0
0.224709 -0.0368378 0
0.202204 -0.0413718 0
0.276349 -0.0358601 0
0.266255 -0.028853 0
0 0 0
0.270429 -0.0330012 0
0.254429 -0.0383005 0
0.261473 -0.0260311 0
0.218534 -0.0398484 0
0.228315 -0.0382339 0
0.261477 -0.0265246 0
0.26148 -0.0270147 0
0.0654337 -0.0142258 0
0.214818 -0.0416943 0
0.261483 -0.027613 0
0.273236 -0.0374058 0
0.214922 -0.0418101 0
0.215026 -0.0419263 0
0.261485 -0.0282069 0
0.276003 -0.0412233 0
0.215174 -0.0420984 0
0.266127 -0.0328007 0
0.270183 -0.0361081 0
0.261486 -0.0289507 0
0.21532 -0.0422715 0
0.275556 -0.0404231 0
0.215527 -0.0425243 0
0.261486 -0.0296885 0
0.215732 -0.0427789 0
0.234005 -0.0403722 0
0.261483 -0.0306291 0
0.220214 -0.0418831 0
0.216018 -0.0431456 0
0.206241 -0.044329 0
0.119419 -0.0268913 0
0.261477 -0.0315611 0
0.201919 -0.044548 0
0.216299 -0.0435162 0
0.190491 -0.0437228 0
0.261466 -0.0327607 0
0.216684 -0.0440424 0
0.269819 -0.0399401 0
0.210108 -0.0451998 0
0.212365 -0.044998 0
0.26145 -0.0339474 0
0.217058 -0.0445759 0
0.265886 -0.0377498 0
0.240628 -0.0429768 0
0.261423 -0.035477 0
0.275307 -0.0461151 0
0.217561 -0.045321 0
0.27442 -0.0458067 0
0.195892 -0.0460271 0
0.22309 -0.0448728 0
0.268079 -0.0462904 0
0.261389 -0.0369876 0
0.218043 -0.0460792 0
0.269397 -0.043661 0
0.271847 -0.0464655 0
0.261333 -0.0389247 0
0.218671 -0.0471163 0
0.248771 -0.0468808 0
0.201419 -0.0479306 0
0.255635 -0.0353917 0
0.265452 -0.0438324 0
0.214138 -0.0484374 0
0.261264 -0.0408334 0
0.25564 -0.036456 0
0.214304 -0.0486694 0
0.219273 -0.0481737 0
0.214548 -0.0490144 0
0.189931 -0.0470089 0
0.255642 -0.0377134 0
0.268789 -0.0481451 0
0.273123 -0.050928 0
0.214899 -0.0495203 0
0.261157 -0.0432561 0
0.255638 -0.0392401 0
0.220049 -0.0495925 0
0.229186 -0.0494735 0
0.215386 -0.0502519 0
0.209312 -0.0506194 0
0.255945 -0.0512352 0
0.255624 -0.0411315 0
0.26103 -0.0456362 0
0.216044 -0.0512962 0
0.220797 -0.0510453 0
0.268093 -0.0524836 0
0.255589 -0.043503 0
0.200729 -0.0512904 0
0.264707 -0.0511361 0
0.260837 -0.0486135 0
0.216905 -0.0527688 0
0.118458 -0.0287239 0
0.157102 -0.0411053 0
0.270073 -0.0566618 0
0.221901 -0.0530102 0
0.204762 -0.0529378 0
0.255519 -0.0464882 0
0.269652 -0.0567282 0
0.262138 -0.0568013 0
0.189129 -0.0502764 0
0.260611 -0.0515283 0
0.217997 -0.0548237 0
0.267114 -0.0575856 0
0.212894 -0.0550138 0
0.249542 -0.0446657 0
0.212973 -0.0551326 0
0.213051 -0.0552516 0
0.223275 -0.0550436 0
0.19448 -0.0525343 0
0.249545 -0.0452426 0
0.241072 -0.0564589 0
0.213164 -0.0554275 0
0.255386 -0.0502329 0
0.213277 -0.055604 0
0.249548 -0.0458164 0
0.213437 -0.0558609 0
0.249549 -0.0464839 0
0.213596 -0.0561191 0
0.260278 -0.0551108 0
0.24955 -0.0471475 0
0.213819 -0.0564894 0
0.249549 -0.047941 0
0.214039 -0.0568624 0
0.199765 -0.0548729 0
0.249546 -0.0487296 0
0.207929 -0.0566403 0
0.264995 -0.0619286 0
0.21434 -0.0573897 0
0.263474 -0.0596861 0
0.24954 -0.0496941 0
0.219302 -0.057682 0
0.214636 -0.0579225 0
0.226101 -0.0577364 0
0.255146 -0.0548836 0
0.249531 -0.0506518 0
0.259892 -0.058604 0
0.265994 -0.0624934 0
0.209943 -0.0578147 0
0 0 0
0.21503 -0.0586659 0
0.249515 -0.051842 0
0.188105 -0.0535319 0
0.215412 -0.0594202 0
0.249494 -0.0530226 0
0.249461 -0.0545026 0
0.215905 -0.0604601 0
0.229828 -0.0608057 0
0.259341 -0.0628141 0
0.249421 -0.0559684 0
0.254729 -0.060573 0
0.216371 -0.0615225 0
0.220711 -0.0616578 0
0.264968 -0.0678805 0
0.198611 -0.0584221 0
0.249358 -0.057809 0
0.26448 -0.0681852 0
0.254561 -0.0663452 0
0.116977 -0.0307507 0
0.216947 -0.0629705 0
0.210898 -0.06223 0
0.249284 -0.0596281 0
0.211035 -0.0624694 0
0.258712 -0.0669022 0
0.211236 -0.0628248 0
0.242278 -0.0552669 0
0.235244 -0.0652294 0
0.261528 -0.0694407 0
0.211521 -0.0633447 0
0.217454 -0.0644634 0
0.249172 -0.0619019 0
0.242283 -0.0565321 0
0.206048 -0.0625387 0
0.186866 -0.0567544 0
0.211915 -0.0640948 0
0.242281 -0.0579618 0
0.192269 -0.0590285 0
0.254029 -0.0674005 0
0.201793 -0.0623135 0
0.249041 -0.0641436 0
0.21244 -0.0651629 0
0.21805 -0.0664565 0
0.242271 -0.0596212 0
0.262753 -0.0735226 0
0.222943 -0.067379 0
0.257845 -0.0717197 0
0.242247 -0.061593 0
0.213113 -0.0666661 0
0.197128 -0.0621957 0
0.241124 -0.0704137 0
0.248849 -0.0669185 0
0.218508 -0.0685066 0
0.154121 -0.0468103 0
0.2422 -0.0639776 0
0.248626 -0.0696458 0
0.213921 -0.0687585 0
0.0631905 -0.015836 0
0.256872 -0.0763789 0
0.242114 -0.0668929 0
0.185416 -0.0599498 0
0.218958 -0.0711591 0
0.252899 -0.0754099 0
0.248307 -0.0729749 0
0.258199 -0.078973 0
0.208302 -0.0692172 0
0.208364 -0.0693386 0
0.208426 -0.0694603 0
0.208517 -0.0696401 0
0.246701 -0.0772284 0
0.208608 -0.0698205 0
0.214808 -0.0716369 0
0.258564 -0.0801739 0
0.208738 -0.0700828 0
0.241964 -0.0704695 0
0.208866 -0.0703462 0
0.209046 -0.0707235 0
0.203447 -0.068924 0
0.195457 -0.0659154 0
0.234661 -0.0658755 0
0.219326 -0.0738447 0
0.209223 -0.0711031 0
0.115092 -0.032523 0
0.247941 -0.076235 0
0.234663 -0.0665699 0
0.228187 -0.0759293 0
0.209464 -0.0716383 0
0.234665 -0.0672621 0
0.255533 -0.0817184 0
0.209698 -0.0721781 0
0.234664 -0.0680317 0
0.234661 -0.0687984 0
0.210008 -0.0729272 0
0.241709 -0.0748424 0
0.234656 -0.0696731 0
0.204861 -0.071443 0
0.210304 -0.0736847 0
0.234648 -0.0705441 0
0.215686 -0.0755374 0
0.247429 -0.0801464 0
0.189285 -0.0654755 0
0.234635 -0.0715618 0
0.183781 -0.063094 0
0.250116 -0.0838575 0
0.219864 -0.0773634 0
0.210683 -0.0747199 0
0.234619 -0.0725745 0
0.251134 -0.084561 0
0.211036 -0.075769 0
0.234594 -0.0737817 0
0.254023 -0.0868854 0
0 0 0
0.234564 -0.0749819 0
0.241288 -0.0801384 0
0.246848 -0.0839598 0
0.211462 -0.0771816 0
0.23452 -0.0764336 0
0.193406 -0.069842 0
0.220671 -0.0810447 0
0.234469 -0.0778751 0
0.211849 -0.0786143 0
0.19712 -0.0722782 0
0.216444 -0.0807198 0
0.234394 -0.079633 0
0.204837 -0.076648 0
0.204954 -0.0768907 0
0.205123 -0.0772505 0
0.200354 -0.0751076 0
0.246056 -0.0884458 0
0.212278 -0.0805149 0
0.251218 -0.0913705 0
0.205362 -0.0777755 0