# vtk DataFile Version 3.0
File generated from DClib
ASCII

DATASET UNSTRUCTURED_GRID
POINTS 1909 float
50 0 0 
48.75 0 0 
50 1.66667 0 
47.5 0 0 
50 3.33333 0 
46.25 0 0 
50 5 0 
45 0 0 
43.75 0 0 
50 6.66667 0 
43 2 0 
42.5 0 0 
50 8.33333 0 
43 4.66667 0 
41.25 0 0 
41.075 2 0 
50 10 0 
40 0 0 
43 7.33333 0 
39.15 2 0 
38.75 0 0 
43 10 0 
37.5 0 0 
37.225 2 0 
36.25 0 0 
36 4 0 
35.3 2 0 
36 5 0 
35 0 0 
35.325 4 0 
36 6 0 
36 7 0 
34.65 4 0 
36 8 0 
33.75 0 0 
33.975 4 0 
36 9 0 
33.375 2 0 
33.3 4 0 
36 10 0 
32.5 0 0 
32.625 4 0 
33 6 0 
31.95 4 0 
33 7.45455 0 
31.45 2 0 
31.25 0 0 
31.95 6 0 
33 8.79545 0 
31.275 4 0 
33 10 0 
30.6 4 0 
30 0 0 
30.9 6 0 
29.925 4 0 
29.525 2 0 
29.85 6 0 
29.25 4 0 
28.75 0 0 
30 8 0 
30 8.45455 0 
28.575 4 0 
29.625 8 0 
30 8.90909 0 
28.8 6 0 
30 9.25 0 
29.782 8.90909 0 
30 9.59091 0 
29.9487 9.59091 0 
29.25 8 0 
29.7462 9.25 0 
30 9.79545 0 
29.897 9.59091 0 
29.564 8.90909 0 
29.9547 9.79545 0 
29.3462 8.45455 0 
29.84 9.59091 0 
30 10 0 
29.8975 9.79545 0 
29.9882 10 0 
29.9902 10.0098 0 
29.7827 9.59091 0 
29.9765 10 0 
29.9804 10.0196 0 
29.9667 10.0098 0 
29.9591 10 0 
29.9686 10.0196 0 
29.9659 10.0341 0 
29.9569 10.0196 0 
29.9418 10 0 
29.9395 10.0196 0 
29.9515 10.0485 0 
29.932 10.0098 0 
29.9424 10.0341 0 
29.8241 9.79545 0 
29.7181 9.59091 0 
29.9166 10 0 
29.9397 10.0485 0 
29.9222 10.0196 0 
29.9279 10.0485 0 
29.9305 10.0695 0 
29.8914 10 0 
29.9077 10.0341 0 
27.9 4 0 
29.897 10.0196 0 
29.9106 10.0485 0 
29.8817 10.0098 0 
29.907 10.0695 0 
29.8933 10.0485 0 
29.9095 10.0905 0 
29.8719 10.0196 0 
27.6 2 0 
29.8556 10 0 
29.8978 10.0905 0 
29.6531 9.59091 0 
29.3437 8.90909 0 
27.5 0 0 
29.8681 10.0485 0 
29.886 10.0905 0 
29.8574 10.0341 0 
29.4839 9.25 0 
29.8723 10.0695 0 
29.7289 9.79545 0 
29.836 10.0196 0 
29.8687 10.0905 0 
29.8197 10 0 
29.8797 10.1203 0 
29.843 10.0485 0 
29.8513 10.0905 0 
29.81 10.0098 0 
29.8561 10.1203 0 
29.8002 10.0196 0 
29.8221 10.0695 0 
29.8072 10.0485 0 
29.8262 10.0905 0 
29.5782 9.59091 0 
29.8498 10.1502 0 
29.7695 10 0 
29.7858 10.0341 0 
29.838 10.1502 0 
29.8215 10.1203 0 
29.8011 10.0905 0 
29.8262 10.1502 0 
29.7714 10.0485 0 
28.875 8 0 
29.75 10.0196 0 
29.8089 10.1502 0 
29.7654 10.0905 0 
29.7193 10 0 
29.7916 10.1502 0 
29.7505 10.0695 0 
29.8079 10.1921 0 
29.7713 10.1203 0 
29.7096 10.0098 0 
29.6047 9.79545 0 
29.503 9.59091 0 
29.7213 10.0485 0 
29.7665 10.1502 0 
29.6999 10.0196 0 
29.7844 10.1921 0 
29.7296 10.0905 0 
29.6856 10.0341 0 
29.7414 10.1502 0 
29.7497 10.1921 0 
29.6503 10 0 
29.7661 10.2339 0 
29.6712 10.0485 0 
29.6999 10.1203 0 
29.7543 10.2339 0 
29.6796 10.0905 0 
29.7057 10.1502 0 
29.7425 10.2339 0 
29.1235 8.90909 0 
29.6309 10.0196 0 
29.6504 10.0695 0 
29.4146 9.59091 0 
29.7252 10.2339 0 
29.6996 10.1921 0 
29.6701 10.1502 0 
29.7079 10.2339 0 
29.6296 10.0905 0 
29.5813 10 0 
29.6023 10.0485 0 
29.5716 10.0098 0 
29.6828 10.2339 0 
29.7086 10.2914 0 
29.2101 9.25 0 
29.562 10.0196 0 
29.6201 10.1502 0 
29.6578 10.2339 0 
29.4428 9.79545 0 
29.5999 10.1203 0 
29.6849 10.2914 0 
29.6283 10.1921 0 
29.5477 10.0341 0 
29.3259 9.59091 0 
29.5608 10.0905 0 
29.5335 10.0485 0 
29.6221 10.2339 0 
29.6503 10.2914 0 
29.5702 10.1502 0 
29.4881 10 0 
29.5128 10.0695 0 
29.6511 10.3489 0 
29.5866 10.2339 0 
29.6392 10.3489 0 
29.4689 10.0196 0 
29.6002 10.2914 0 
29.6273 10.3489 0 
29.4921 10.0905 0 
29.61 10.3489 0 
29.5286 10.1921 0 
29.5016 10.1502 0 
29.5368 10.2339 0 
29.5926 10.3489 0 
29.4405 10.0485 0 
29.2199 9.59091 0 
29.4626 10.1203 0 
29.3949 10 0 
28.9 8.90909 0 
29.5676 10.3489 0 
29.5291 10.2914 0 
29.3853 10.0098 0 
28.6923 8.45455 0 
29.487 10.2339 0 
29.5426 10.3489 0 
29.3758 10.0196 0 
29.5734 10.4266 0 
29.4331 10.1502 0 
29.3993 10.0905 0 
28.5 8 0 
29.3617 10.0341 0 
29.5496 10.4266 0 
29.5071 10.3489 0 
29.2327 9.79545 0 
29.3475 10.0485 0 
29.1136 9.59091 0 
29.4187 10.2339 0 
29.5148 10.4266 0 
29.4716 10.3489 0 
29.3918 10.1921 0 
29.3271 10.0695 0 
29.4298 10.2914 0 
29.2714 10 0 
29.3406 10.1502 0 
28.9208 9.25 0 
29.3066 10.0905 0 
29.4648 10.4266 0 
29.422 10.3489 0 
29.4958 10.5042 0 
29.2524 10.0196 0 
27.75 6 0 
29.3504 10.2339 0 
29.4837 10.5042 0 
29.4718 10.5042 0 
29.2774 10.1203 0 
29.4543 10.5042 0 
29.3724 10.3489 0 
29.2244 10.0485 0 
29.4369 10.5042 0 
29.3938 10.4266 0 
28.9853 9.59091 0 
29.2481 10.1502 0 
28.6766 8.90909 0 
29.4119 10.5042 0 
29.2934 10.2914 0 
27.225 4 0 
29.148 10 0 
29.2582 10.2339 0 
29.1837 10.0905 0 
29.3869 10.5042 0 
29.1385 10.0098 0 
29.3044 10.3489 0 
29.1291 10.0196 0 
29.2072 10.1921 0 
29.3514 10.5042 0 
29.1152 10.0341 0 
29.3929 10.6071 0 
29.2949 10.4266 0 
29.1013 10.0485 0 
29.3686 10.6071 0 
29.316 10.5042 0 
29.2364 10.3489 0 
28.9623 9.79545 0 
29.1257 10.1502 0 
29.1662 10.2339 0 
29.0811 10.0695 0 
28.8566 9.59091 0 
29.3336 10.6071 0 
29.2666 10.5042 0 
29.0609 10.0905 0 
28.9875 10 0 
29.2835 10.6071 0 
29.1448 10.3489 0 
29.0321 10.1203 0 
29.2173 10.5042 0 
29.1098 10.2914 0 
28.125 8 0 
28.9688 10.0196 0 
29.1594 10.4266 0 
28.611 9.25 0 
29.29 10.71 0 
28.4486 8.90909 0 
29.0443 10.2339 0 
29.0033 10.1502 0 
29.2777 10.71 0 
28.9413 10.0485 0 
29.2128 10.6071 0 
29.2655 10.71 0 
29.1497 10.5042 0 
29.2478 10.71 0 
28.7003 9.59091 0 
29.0533 10.3489 0 
29.2303 10.71 0 
28.9629 10.1921 0 
28.9013 10.0905 0 
29.2051 10.71 0 
29.0822 10.5042 0 
29.1801 10.71 0 
28.827 10 0 
29.1144 10.6071 0 
28.8177 10.0098 0 
28.9225 10.2339 0 
28.8085 10.0196 0 
29.1447 10.71 0 
28.7949 10.0341 0 
28.8443 10.1502 0 
28.977 10.4266 0 
28.9322 10.3489 0 
29.1094 10.71 0 
28.7813 10.0485 0 
28.9912 10.5042 0 
29.1562 10.8438 0 
28.5436 9.59091 0 
28.7615 10.0695 0 
28.8669 10.2914 0 
29.1313 10.8438 0 
28.6184 9.79545 0 
29.0602 10.71 0 
28.2207 8.90909 0 
28.7418 10.0905 0 
28.0378 8.45455 0 
28.9798 10.6071 0 
29.0958 10.8438 0 
29.0112 10.71 0 
28.9005 10.5042 0 
28.7136 10.1203 0 
28.7644 10.2339 0 
28.8113 10.3489 0 
29.0454 10.8438 0 
28.6223 10 0 
28.6854 10.1502 0 
28.2746 9.25 0 
28.9441 10.71 0 
28.6042 10.0196 0 
27.75 8 0 
28.9747 10.8438 0 
28.6459 10.1921 0 
28.5773 10.0485 0 
29.0225 10.9775 0 
28.3532 9.59091 0 
28.7804 10.5042 0 
28.736 10.4266 0 
28.8772 10.71 0 
29.0097 10.9775 0 
28.9971 10.9775 0 
28.799 10.6071 0 
28.9791 10.9775 0 
28.5384 10.0905 0 
28.6064 10.2339 0 
28.6543 10.3489 0 
28.9611 10.9775 0 
28.8769 10.8438 0 
27.9867 8.90909 0 
26.25 0 0 
28.9358 10.9775 0 
28.7871 10.71 0 
28.9106 10.9775 0 
28.6607 10.5042 0 
28.4177 10 0 
26.55 4 0 
28.552 10.2914 0 
28.483 10.1502 0 
28.4087 10.0098 0 
28.8751 10.9775 0 
28.3998 10.0196 0 
28.3866 10.0341 0 
28.8399 10.9775 0 
28.6974 10.71 0 
28.3735 10.0485 0 
28.1625 9.59091 0 
28.7436 10.8438 0 
28.4976 10.3489 0 
28.3543 10.0695 0 
28.791 10.9775 0 
28.4052 10.2339 0 
28.3352 10.0905 0 
28.8519 11.1481 0 
28.1869 9.79545 0 
28.5607 10.6071 0 
28.5053 10.5042 0 
28.7423 10.9775 0 
28.8258 11.1481 0 
28.308 10.1203 0 
28.5787 10.71 0 
27.904 9.25 0 
28.7893 11.1481 0 
28.424 10.4266 0 
27.7528 8.90909 0 
28.2807 10.1502 0 
28.6758 10.9775 0 
27.375 8 0 
28.7383 11.1481 0 
28.1619 10 0 
28.5649 10.8438 0 
28.2425 10.1921 0 
28.6096 10.9775 0 
28.1444 10.0196 0 
28.298 10.3489 0 
28.4605 10.71 0 
26.7 6 0 
27.9315 9.59091 0 
28.3503 10.5042 0 
28.6676 11.1481 0 
28.1187 10.0485 0 
28.2042 10.2339 0 
28.5207 10.9775 0 
28.0813 10.0905 0 
28.6814 11.3186 0 
27.3818 8.45455 0 
28.6679 11.3186 0 
28.1516 10.2914 0 
28.5703 11.1481 0 
28.6544 11.3186 0 
28.6358 11.3186 0 
27.5109 8.90909 0 
28.3072 10.71 0 
28.6173 11.3186 0 
28.2524 10.6071 0 
28.4322 10.9775 0 
28.028 10.1502 0 
28.5915 11.3186 0 
28.0989 10.3489 0 
28.33 10.8438 0 
28.5658 11.3186 0 
28.153 10.5042 0 
27.9061 10 0 
27.8975 10.0098 0 
28.5303 11.3186 0 
28.4384 11.1481 0 
27.7002 9.59091 0 
27.889 10.0196 0 
27.8765 10.0341 0 
28.4949 11.3186 0 
28.3154 10.9775 0 
27.9532 10.2339 0 
27.8639 10.0485 0 
28.0276 10.4266 0 
28.1544 10.71 0 
27.8457 10.0695 0 
27.4909 9.25 0 
28.4463 11.3186 0 
27 8 0 
27.8275 10.0905 0 
28.3979 11.3186 0 
27.8015 10.1203 0 
27.6542 9.79545 0 
25.675 2 0 
28.1991 10.9775 0 
27.2691 8.90909 0 
27.9563 10.5042 0 
28.4682 11.5318 0 
28.2625 11.1481 0 
27.7755 10.1502 0 
28.3322 11.3186 0 
27.8502 10.3489 0 
28.4401 11.5318 0 
25.875 4 0 
27.7391 10.1921 0 
28.4019 11.5318 0 
28.0268 10.8438 0 
28.2668 11.3186 0 
27.9602 10.71 0 
28.3498 11.5318 0 
27.4223 9.59091 0 
27.7026 10.2339 0 
27.5927 10 0 
28.0486 10.9775 0 
27.8616 10.6071 0 
27.5762 10.0196 0 
28.1794 11.3186 0 
28.2786 11.5318 0 
27.5519 10.0485 0 
27.6524 10.2914 0 
28.0319 11.1481 0 
27.7108 10.5042 0 
27.5167 10.0905 0 
27.0169 8.90909 0 
28.0924 11.3186 0 
27.6021 10.3489 0 
27.8988 10.9775 0 
28.1818 11.5318 0 
27.7667 10.71 0 
26.625 8 0 
28.255 11.745 0 
27.4664 10.1502 0 
28.2402 11.745 0 
28.2256 11.745 0 
28.2059 11.745 0 
27.978 11.3186 0 
26.7234 8.45455 0 
27.0259 9.25 0 
27.5342 10.4266 0 
28.1863 11.745 0 
27.1442 9.59091 0 
28.0516 11.5318 0 
28.1598 11.745 0 
27.3959 10.2339 0 
28.1334 11.745 0 
27.2793 10 0 
27.2714 10.0098 0 
27.2635 10.0196 0 
27.7086 10.9775 0 
27.6431 10.8438 0 
28.0975 11.745 0 
27.8643 11.3186 0 
27.4661 10.5042 0 
27.2518 10.0341 0 
27.2401 10.0485 0 
28.0617 11.745 0 
26.7648 8.90909 0 
27.5255 10.71 0 
27.7353 11.1481 0 
27.2231 10.0695 0 
28.0133 11.745 0 
27.2061 10.0905 0 
27.8791 11.5318 0 
27.2986 10.3489 0 
27.1818 10.1203 0 
27.9651 11.745 0 
27.3758 10.6071 0 
27.0077 9.79545 0 
27.7174 11.3186 0 
27.1576 10.1502 0 
25 0 0 
27.5193 10.9775 0 
27.9003 11.745 0 
27.1236 10.1921 0 
26.25 8 0 
27.9939 12.0061 0 
25.65 6 0 
27.8359 11.745 0 
26.8136 9.59091 0 
27.0896 10.2339 0 
27.9626 12.0061 0 
27.2853 10.71 0 
25.2 4 0 
27.5713 11.3186 0 
27.9218 12.0061 0 
26.4998 8.90909 0 
27.167 10.5042 0 
27.6541 11.5318 0 
27.0427 10.2914 0 
27.7503 11.745 0 
26.9033 10 0 
27.8677 12.0061 0 
26.8882 10.0196 0 
26.8659 10.0485 0 
26.9958 10.3489 0 
27.2836 10.9775 0 
27.6652 11.745 0 
27.3609 11.1481 0 
27.7955 12.0061 0 
26.499 9.25 0 
[...]
POINT_DATA 1909
SCALARS phi float 1
LOOKUP_TABLE default
VECTORS Displacement float
0 0 0
0 0 0
0 -0.00574408 0
0 0 0
0 -0.00791811 0
0 0 0
0 -0.00684405 0
0 0 0
0 0 0
0 -0.00286635 0
0.0163628 -0.00498185 0
0 0 0
0 0.00377845 0
0.0317288 -0.00296115 0
0 0 0
0.022211 -0.00487769 0
0 0.012287 0
0 0 0
0.0419742 0.00704574 0
0.0286415 -0.00494831 0
0 0 0
0.047415 0.0230643 0
0 0 0
0.0355223 -0.0053163 0
0 0 0
0.0672836 -0.00325648 0
0.0424706 -0.00598633 0
0.0791941 0.000853974 0
0 0 0
0.0721858 -0.00359841 0
0.0876824 0.00635688 0
0.0931941 0.0129017 0
0.0770079 -0.00402799 0
0.0965662 0.0198246 0
0 0 0
0.0818088 -0.00471669 0
0.0992665 0.0272311 0
0.049043 -0.00691633 0
0.0864763 -0.00550666 0
0.101748 0.0362407 0
0 0 0
0.0909212 -0.00646234 0
0.116111 0.00343325 0
0.0951438 -0.00751509 0
0.127208 0.0154076 0
0.0548218 -0.00805114 0
0 0 0
0.125974 -0.00043743 0
0.13213 0.0319063 0
0.0990612 -0.00868923 0
0.133345 0.0554579 0
0.102664 -0.00994979 0
0 0 0
0.134309 -0.00448988 0
0.105911 -0.0112974 0
0.0594627 -0.00934582 0
0.141339 -0.0088943 0
0.108777 -0.0127251 0
0 0 0
0.165621 0.0017821 0
0.170521 0.00570531 0
0.111271 -0.0142127 0
0.169101 -0.0012324 0
0.175358 0.0108392 0
0.147028 -0.0136314 0
0.17903 0.0177728 0
0.17788 0.00771515 0
0.182846 0.0276518 0
0.183636 0.0253425 0
0.172158 -0.00432019 0
0.182376 0.0124023 0
0.183863 0.0345493 0
0.184402 0.0233972 0
0.180128 0.00493494 0
0.18463 0.0322459 0
0.176921 -0.000779903 0
0.185158 0.0214466 0
0.184293 0.0425366 0
0.185633 0.0295269 0
0.184646 0.0426419 0
0.371271 0.110958 0
0.185857 0.0197047 0
0.18504 0.0425616 0
0.429473 0.131366 0
0.364602 0.108542 0
0.185656 0.0424422 0
0.427988 0.130509 0
0.432766 0.131269 0
0.425945 0.12937 0
0.186328 0.0422015 0
0.422299 0.127216 0
0.432833 0.130235 0
0.355581 0.104081 0
0.431429 0.129054 0
0.186982 0.0265487 0
0.186573 0.0179416 0
0.18731 0.0414887 0
0.432636 0.129138 0
0.418189 0.124939 0
0.432453 0.128077 0
0.432846 0.128722 0
0.18834 0.0407721 0
0.427851 0.125532 0
0.113342 -0.0157844 0
0.411998 0.121391 0
0.431981 0.126605 0
0.343012 0.0971402 0
0.432572 0.12668 0
0.43136 0.125085 0
0.432037 0.127058 0
0.405504 0.117768 0
0.0626913 -0.0107729 0
0.189729 0.0392499 0
0.43195 0.126054 0
0.187228 0.0163174 0
0.182285 0.00231732 0
0 0 0
0.429986 0.122799 0
0.43185 0.125046 0
0.420688 0.119935 0
0.185346 0.00819764 0
0.43205 0.123662 0
0.188742 0.0233484 0
0.396392 0.112308 0
0.431677 0.123524 0
0.191109 0.0378388 0
0.430994 0.124763 0
0.428068 0.120337 0
0.431491 0.121974 0
0.326692 0.0870783 0
0.430802 0.122684 0
0.387151 0.106931 0
0.430568 0.118989 0
0.424628 0.116567 0
0.431157 0.119664 0
0.187933 0.0146119 0
0.429747 0.12234 0
0.19285 0.035557 0
0.408276 0.111013 0
0.429646 0.121275 0
0.43049 0.11953 0
0.430776 0.117329 0
0.429544 0.120196 0
0.420326 0.11262 0
0.17505 -0.00740856 0
0.374501 0.0993017 0
0.429381 0.118594 0
0.429945 0.113984 0
0.194473 0.0334535 0
0.429212 0.116979 0
0.426472 0.111925 0
0.428013 0.118862 0
0.429979 0.114864 0
0.306081 0.0737914 0
0.190895 0.0198874 0
0.188588 0.0129977 0
0.413477 0.106886 0
0.428956 0.11463 0
0.361901 0.091995 0
0.427809 0.116658 0
0.428801 0.110617 0
0.388519 0.0979838 0
0.428693 0.112289 0
0.427492 0.113402 0
0.196416 0.0306425 0
0.426276 0.115303 0
0.405592 0.10107 0
0.428934 0.108239 0
0.426163 0.114182 0
0.426439 0.105918 0
0.428306 0.108976 0
0.426049 0.113066 0
0.184273 -0.000195808 0
0.344946 0.0821948 0
0.417108 0.101694 0
0.189333 0.0112597 0
0.425879 0.111429 0
0.427006 0.108733 0
0.427916 0.105737 0
0.425709 0.109806 0
0.423232 0.101191 0
0.198102 0.0280212 0
0.393811 0.093066 0
0.281052 0.057786 0
0.425461 0.107479 0
0.423939 0.110379 0
0.188042 0.00429545 0
0.328438 0.0730304 0
0.42722 0.101317 0
0.425214 0.105188 0
0.193369 0.0161297 0
0.42602 0.0992537 0
0.42372 0.108155 0
0.4263 0.102307 0
0.358979 0.0804959 0
0.190047 0.00959098 0
0.417462 0.0947747 0
0.380864 0.0851112 0
0.424859 0.101992 0
0.423393 0.104944 0
0.426347 0.0970422 0
0.200038 0.0249483 0
0.398848 0.0875286 0
0.421649 0.10551 0
0.424503 0.0988796 0
0.421538 0.104406 0
0.307105 0.0614844 0
0.422912 0.100435 0
0.421426 0.103315 0
0.410296 0.0883365 0
0.421263 0.101731 0
0.425241 0.0938316 0
0.424434 0.0913965 0
0.42401 0.0946518 0
0.421099 0.100171 0
0.36234 0.0747294 0
0.190897 0.00774497 0
0.418075 0.0874474 0
0.201603 0.0220308 0
0.186197 -0.0026387 0
0.420862 0.0979522 0
0.422226 0.0943042 0
0.253517 0.0404469 0
0.182102 -0.0069994 0
0.423534 0.0905994 0
0.420625 0.0957808 0
0.287739 0.0511999 0
0.41867 0.099094 0
0.421698 0.0858872 0
0.39859 0.0798636 0
0.177581 -0.0105987 0
0.318175 0.0589973 0
0.41846 0.0969661 0
0.42029 0.0927645 0
0.196037 0.0119576 0
0.342781 0.064592 0
0.191741 0.00596183 0
0.422815 0.0852574 0
0.418153 0.093935 0
0.419958 0.0898389 0
0.42275 0.0830981 0
0.367003 0.0688443 0
0.421291 0.0862995 0
0.203338 0.0187815 0
0.416298 0.0787896 0
0.190547 0.000417551 0
0.38483 0.0713347 0
0.417707 0.0897201 0
0.419495 0.0858887 0
0.415736 0.0928878 0
0.265139 0.0393213 0
0.151312 -0.0186217 0
0.422002 0.0802091 0
0.415636 0.0918515 0
0.415537 0.09083 0
0.399867 0.0721165 0
0.415392 0.0893588 0
0.419039 0.0820956 0
0.316908 0.0522097 0
0.415247 0.0879142 0
0.417073 0.0840353 0
0.192747 0.00392252 0
0.409182 0.0717654 0
0.187978 -0.00507242 0
0.415038 0.0858707 0
0.420069 0.076273 0
0.115026 -0.017387 0
0.204675 0.0156585 0
0.42022 0.073775 0
0.363908 0.0605998 0
0.41483 0.0838757 0
0.22919 0.0241859 0
0.41843 0.077112 0
0.247737 0.029824 0
0.415224 0.0699217 0
0.414536 0.0811139 0
0.270954 0.0359512 0
0.412054 0.0850456 0
0.416202 0.0766283 0
0.292384 0.0409672 0
0.41187 0.083082 0
0.414242 0.0784379 0
0.417846 0.0723925 0
0.198705 0.00711726 0
0.396639 0.0629492 0
0.41759 0.0676372 0
0.318478 0.0461195 0
0.193758 0.00194739 0
0.411602 0.0803158 0
0.413833 0.0748238 0
0.340728 0.0498857 0
0.206084 0.0121055 0
0.411217 0.0764958 0
0.417054 0.0663527 0
0.363719 0.0525793 0
0.41343 0.0713544 0
0.417633 0.064176 0
0.179884 -0.0137803 0
0.230986 0.0199775 0
0.415054 0.0673468 0
0.19292 -0.00358117 0
0.408416 0.0775807 0
0.189624 -0.00757303 0
0.412038 0.0600423 0
0.380958 0.053964 0
0.408334 0.0766366 0
0.26495 0.0283958 0
0.410673 0.0713597 0
0.408251 0.0757073 0
0.412881 0.0667994 0
0.408133 0.0743812 0
0.194966 -0.000354404 0
0.416207 0.0607292 0
0.408014 0.0730802 0
0.395504 0.0537293 0
0.310123 0.0372685 0
0.407844 0.0712509 0
0.412345 0.06247 0
0.407674 0.0694652 0
0.20715 0.00868424 0
0.409924 0.064673 0
0.214551 0.0111232 0
0.404371 0.0526386 0
0.221093 0.0130035 0
0.407432 0.0670013 0
0.232408 0.0160182 0
0.35626 0.043259 0
0.41365 0.0561867 0
0.414376 0.0537754 0
0.407192 0.0646125 0
0.244509 0.0188985 0
0.411646 0.0569477 0
0.403976 0.0684757 0
0.196161 -0.00259436 0
0.263211 0.0228854 0
0.409804 0.0501086 0
0.403825 0.0666997 0
0.201155 0.00131041 0
0.406856 0.0613912 0
0.191138 -0.0100623 0
0.28186 0.0262955 0
0.186188 -0.0133205 0
0.408924 0.0562769 0
0.403608 0.0642318 0
0.406522 0.0582947 0
0.410982 0.0517661 0
0.306303 0.0299185 0
0.389875 0.0438346 0
0.411597 0.047275 0
0.4033 0.0608512 0
0.208151 0.00463829 0
0.328274 0.0325076 0
0.195143 -0.00783966 0
0.406066 0.0542255 0
0.214304 0.0062802 0
0.181817 -0.0170235 0
0.402868 0.0563254 0
0.352147 0.0341102 0
0.227374 0.00921504 0
0.39963 0.0599136 0
0.19756 -0.00523439 0
0.410126 0.0453292 0
0.411066 0.0432891 0
0.405618 0.0503549 0
0.399564 0.0590648 0
0.399499 0.05823 0
0.407657 0.0461491 0
0.399406 0.0570567 0
0.253018 0.0141025 0
0.370693 0.0347029 0
0.405415 0.0395357 0
0.399314 0.0559062 0
0.402278 0.0504413 0
0.192518 -0.0126224 0
0 0 0
0.399182 0.0543046 0
0.405027 0.0454157 0
0.399051 0.0527412 0
0.409205 0.0394137 0
0.208881 0.000747311 0
0.116263 -0.0190916 0
0.386622 0.0336969 0
0.293521 0.0201875 0
0.20999 0.000967076 0
0.398866 0.0505977 0
0.211429 0.0012723 0
0.214358 0.00192975 0
0.398682 0.0485192 0
0.404461 0.0407725 0
0.21813 0.00276045 0
0.198887 -0.00782575 0
0.401495 0.0430558 0
0.396469 0.0320926 0
0.225366 0.00429975 0
0.398429 0.0457268 0
0.340915 0.0245134 0
0.233986 0.00595604 0
0.39446 0.0498038 0
0.203296 -0.00561918 0
0.406192 0.0344588 0
0.407209 0.0323376 0
0.398179 0.0430425 0
0.394345 0.0482128 0
0.24852 0.00845562 0
0.403765 0.0350336 0
0.19724 -0.0124222 0
0.394182 0.0460489 0
0.40231 0.0290743 0
0.19376 -0.0151728 0
0.264246 0.0106628 0
0.397843 0.039524 0
0.183492 -0.0202313 0
0.393956 0.0431272 0
0.209402 -0.00387356 0
0.400505 0.0341478 0
0.286676 0.0130904 0
0.397517 0.0361767 0
0.210528 -0.00383593 0
0.378668 0.0238929 0
0.403133 0.0297114 0
0.154148 -0.0238173 0
0.20037 -0.0108981 0
0.404146 0.0258742 0
0.393645 0.0392528 0
0.213451 -0.00351581 0
0.308302 0.014675 0
0.397091 0.0319062 0
0.221057 -0.00249842 0
0.389439 0.0404198 0
0.18928 -0.0196597 0
0.389391 0.0396644 0
0.333516 0.015318 0
0.393226 0.034247 0
0.389343 0.0389225 0
0.389277 0.0379038 0
0.194867 -0.017809 0
0.402315 0.0232997 0
0.389212 0.0369061 0
0.403433 0.021581 0
0.396684 0.0278864 0
0.238758 -0.000296466 0
0.389121 0.0355405 0
0.354315 0.0151252 0
0.399333 0.0238348 0
0.389031 0.0342089 0
0.396835 0.0184814 0
0.209751 -0.00830329 0
0.210069 -0.0083569 0
0.388907 0.0324046 0
0.392687 0.02798 0
0.201707 -0.013933 0
0.210381 -0.00841321 0
0.210968 -0.00845719 0
0.388784 0.0306559 0
0.396169 0.0229008 0
0.272337 0.00302605 0
0.211643 -0.00848174 0
0.373207 0.0133582 0
0.401338 0.0174478 0
0.213101 -0.00839196 0
0.199168 -0.0174161 0
0.388619 0.0283238 0
0.184813 -0.0234543 0
0.215018 -0.00820889 0
0.388458 0.0260804 0
0.219008 -0.00770037 0
0.20525 -0.0136261 0
0.0642761 -0.0123115 0
0.395689 0.0182424 0
0.195823 -0.0204363 0
0.385527 0.0112885 0
0.383681 0.0297582 0
0.392031 0.0203987 0
0.224325 -0.00700419 0
0.388246 0.023149 0
0.319441 0.00560387 0
0.383606 0.0283494 0
0.117099 -0.0207896 0
0.234218 -0.00577776 0
0.383502 0.0264931 0
0.398026 0.0122838 0
0.388044 0.0203517 0
0.399148 0.0105733 0
0.383362 0.0240422 0
0.203091 -0.0175286 0
0.246142 -0.00459399 0
0.209946 -0.0133974 0
0.395134 0.0126118 0
0.393049 0.00782473 0
0.210507 -0.0135346 0
0.387785 0.0167792 0
0.383174 0.0208367 0
0.211348 -0.0137463 0
0.264994 -0.00321799 0
0.391272 0.0115223 0
0.363112 0.00399822 0
0.212951 -0.0139984 0
0.196649 -0.0231627 0
0.387546 0.0133956 0
0.284852 -0.00255789 0
0.394647 0.00737238 0
0.38293 0.0167194 0
0.395683 0.00432176 0
0.185867 -0.0266902 0
0.377936 0.0199761 0
0.216968 -0.0141318 0
0.37791 0.0193142 0
0.377885 0.0186645 0
0.377854 0.0178007 0
0.38725 0.00916308 0
0.191369 -0.0260226 0
0.200855 -0.0229055 0
0.310193 -0.00283919 0
0.377822 0.0169546 0
0.204253 -0.0210888 0
0.382626 0.0115516 0
0.377781 0.0158226 0
0.227657 -0.0138899 0
0.377741 0.0147172 0
0.210096 -0.018296 0
0.210321 -0.0183803 0
0.210552 -0.0184644 0
0.393882 0.00109658 0
0.395077 -0.000275301 0
0.377687 0.0132414 0
0.386975 0.00515875 0
0.332891 -0.00399909 0
0.210883 -0.018593 0
0.211212 -0.0187245 0
0.377634 0.0118062 0
0.197317 -0.0258762 0
0.386484 -0.00263898 0
0.390384 0.00134389 0
0.211706 -0.0189082 0
0.377564 0.00990665 0
0.212189 -0.0190996 0
0.382257 0.00521653 0
0.252212 -0.01324 0
0.213013 -0.0193329 0
0.377496 0.00806737 0
0.355272 -0.00683929 0
0.207216 -0.0226049 0
0.38663 0.000217777 0
0.213947 -0.0195535 0
0 0 0
0.392782 -0.00479814 0
0.377404 0.00566458 0
0.215923 -0.0197253 0
0.186594 -0.0299257 0
0.371647 0.00928605 0
0.155517 -0.0291781 0
0.377316 0.00334465 0
0.205294 -0.0252766 0
0.218628 -0.0197999 0
0.371611 0.00803029 0
0.371053 -0.009787 0
0.11747 -0.0226203 0
0.386255 -0.00453177 0
0.371563 0.00643196 0
0.197864 -0.0287066 0
0.294635 -0.0131355 0
0.381807 -0.002439 0
0.224279 -0.0196741 0
0.3772 0.000357517 0
0.210496 -0.0237477 0
0.371499 0.0043701 0
0.210795 -0.0239449 0
0.211283 -0.0242286 0
0.23198 -0.019458 0
0.390148 -0.0118834 0
0.377081 -0.00253548 0
0.389077 -0.0104584 0
0.371414 0.00170312 0
0.202122 -0.029015 0
0.212043 -0.0246408 0
0.381456 -0.0142264 0
0.38575 -0.0103568 0
0.245647 -0.0192164 0
0.371304 -0.00172885 0
0.376926 -0.00621873 0
0.213199 -0.0252472 0
0.342708 -0.0164273 0
0.198245 -0.0315234 0
0.192513 -0.0323922 0
0.206027 -0.0294203 0
0.381185 -0.011703 0
0.261808 -0.0195027 0
0.187066 -0.0331685 0
0.365196 -0.000640024 0
0.215341 -0.0260959 0
0.376751 -0.0098118 0
0.365191 -0.00124819 0
0.371161 -0.00610825 0
0.385655 -0.0184531 0
0.365187 -0.00184769 0
0.385176 -0.0159738 0
0.365182 -0.00261312 0
0.365177 -0.00336722 0
0.36517 -0.00434698 0
0.21078 -0.029044 0
0.284773 -0.020803 0
0.210917 -0.029151 0
0.211055 -0.0292586 0
0.365163 -0.00531158 0
0.211243 -0.0294215 0
0.22092 -0.0271942 0
0.376491 -0.0143416 0
0.211434 -0.0295855 0
0.365153 -0.00657562 0
0.211705 -0.0298264 0
0.370963 -0.0116624 0
0.365141 -0.00781975 0
0.211987 -0.0300673 0
0.2124 -0.0304096 0
0.198487 -0.0344875 0
0.307458 -0.0232139 0
0.365125 -0.00945302 0
0.385353 -0.0238462 0
0.384158 -0.0227392 0
0.212819 -0.030755 0
0.376192 -0.0187585 0
0.365104 -0.0110615 0
0.372865 -0.0251321 0
0.208641 -0.0327223 0
0.213443 -0.0312259 0
0.380167 -0.0227828 0
0.236105 -0.0287766 0
0.365072 -0.0131677 0
0.206525 -0.0342057 0
0.214055 -0.0317085 0
0.187243 -0.0364014 0
0.370653 -0.0186499 0
0.117425 -0.0243894 0
0.365033 -0.0152447 0
0.33205 -0.0275994 0
0.20274 -0.0358493 0
0.215084 -0.0323262 0
0.375754 -0.024222 0
0.357939 -0.0116231 0
0.382739 -0.0291856 0
0.364963 -0.0179418 0
0.357934 -0.0128577 0
0.216301 -0.0329351 0
0.198555 -0.0374389 0
0.357925 -0.0143771 0
0.211135 -0.0349955 0
0.211333 -0.0352128 0
0.36488 -0.0206002 0
0.351171 -0.0321158 0
0.269004 -0.031655 0
0.357911 -0.0162923 0
0.211631 -0.0355351 0
0.218985 -0.0336278 0
0.375247 -0.0295317 0
0.212078 -0.0360016 0
0.192776 -0.0387566 0
0.37013 -0.0272889 0
0.357887 -0.0187439 0
0.364752 -0.0240129 0
0.222825 -0.034285 0
0.212728 -0.0366732 0
0.155427 -0.0346746 0
0.379006 -0.03672 0
0.206612 -0.0389408 0
0.357845 -0.0219035 0
0.378385 -0.0357405 0
0.187177 -0.0396369 0
0.364602 -0.027365 0
0.365449 -0.0382181 0
0.213672 -0.0376332 0
0.230823 -0.0351198 0
0.198452 -0.0405673 0
0.374523 -0.0359543 0
0.357765 -0.0259719 0
0 0 0
0.364377 -0.0315937 0
0.31636 -0.0376594 0
0.350584 -0.022251 0
0.215076 -0.0390046 0
0.241723 -0.0362769 0
0.350588 -0.0228958 0
0.350592 -0.0235356 0
0.0640172 -0.0139183 0
0.210964 -0.0408936 0
0.350595 -0.0243164 0
0.369256 -0.0377148 0
0.211073 -0.0410075 0
0.211182 -0.0411218 0
0.350597 -0.0250912 0
0.372282 -0.0435865 0
0.211335 -0.0412913 0
0.35762 -0.0311679 0
0.364116 -0.0357292 0
0.350598 -0.0260613 0
0.211486 -0.0414614 0
0.373706 -0.0421542 0
0.211699 -0.0417105 0
0.350597 -0.0270239 0
0.211908 -0.0419614 0
0.259394 -0.0385169 0
0.350592 -0.028251 0
0.21773 -0.040997 0
0.212201 -0.042323 0
0.202462 -0.0434716 0
0.116896 -0.0263275 0
0.350584 -0.0294682 0
0.198168 -0.0436804 0
0.21249 -0.0426885 0
0.186847 -0.0428586 0
0.35057 -0.0310347 0
0.212883 -0.0432085 0
0.363735 -0.0408415 0
0.206298 -0.0443239 0
0.208524 -0.0441286 0
0.350551 -0.0325869 0
0.213273 -0.0437358 0
0.35736 -0.0377013 0
0.27919 -0.0420655 0
0.35052 -0.034589 0
0.373046 -0.050082 0
0.213785 -0.0444725 0
0.37232 -0.0494638 0
0.192195 -0.0451252 0
0.2252 -0.0441145 0
0.353789 -0.0490354 0
0.350482 -0.0365687 0
0.214286 -0.0452219 0
0.363298 -0.0458169 0
0.367818 -0.0499326 0
0.350421 -0.0391098 0
0.214955 -0.0462363 0
0.303219 -0.0479846 0
0.197673 -0.0469938 0
0.342013 -0.0344261 0
0.356905 -0.0457554 0
0.210333 -0.0474732 0
0.350348 -0.0416154 0
0.342018 -0.0358096 0
0.210496 -0.0476985 0
0.215614 -0.0472695 0
0.21074 -0.0480336 0
0.186287 -0.0460781 0
0.34202 -0.037445 0
0.362674 -0.0518243 0
0.370456 -0.0563362 0
0.211093 -0.0485248 0
0.350236 -0.0447986 0
0.342016 -0.0394319 0
0.216664 -0.048645 0
0.245851 -0.049542 0
0.211587 -0.0492353 0
0.205519 -0.049631 0
0.324347 -0.0545655 0
0.342001 -0.0418951 0
0.350103 -0.0479283 0
0.212256 -0.0502494 0
0.218066 -0.0500202 0
0.361959 -0.0576474 0
0.341967 -0.0449857 0
0.19699 -0.0502858 0
0.356134 -0.0554537 0
0.349904 -0.0518472 0
0.213145 -0.0516794 0
0.115945 -0.0281214 0
0.153896 -0.0402651 0
0.364549 -0.063741 0
0.221612 -0.0517503 0
0.201005 -0.0519039 0
0.341897 -0.0488781 0
0.3654 -0.0637881 0
0.34258 -0.0630564 0
0.185491 -0.049279 0
0.349673 -0.055687 0
0.214283 -0.0536832 0
0.360937 -0.064513 0
0.209112 -0.053934 0
0.333322 -0.0464398 0
0.209196 -0.0540514 0
0.209279 -0.0541692 0
0.226971 -0.0536732 0
0.190797 -0.0514996 0
0.333325 -0.0471865 0
0.285268 -0.0588083 0
0.209397 -0.0543431 0
0.341763 -0.0537624 0
0.209514 -0.0545177 0
0.333328 -0.0479294 0
0.209679 -0.0547719 0
0.33333 -0.0487932 0
0.209843 -0.0550276 0
0.349335 -0.0604113 0
0.333331 -0.0496522 0
0.210072 -0.0553945 0
0.33333 -0.050679 0
0.210298 -0.0557642 0
0.196044 -0.0537952 0
0.333328 -0.0516994 0
0.204171 -0.0555299 0
0.353216 -0.0702879 0
0.210609 -0.056288 0
0.354875 -0.0668483 0
0.333322 -0.0529474 0
0.215766 -0.0564652 0
0.210913 -0.0568176 0
0.237684 -0.0566111 0
0.341524 -0.0598324 0
0.333312 -0.0541864 0
0.348945 -0.0650234 0
0.359796 -0.0711593 0
0.206179 -0.0566832 0
0 0 0
0.211318 -0.0575595 0
0.333297 -0.0557266 0
0.184477 -0.0524679 0
0.21171 -0.0583136 0
0.333277 -0.0572538 0
0.333245 -0.0591687 0
0.212212 -0.0593578 0
0.251806 -0.0607567 0
0.348393 -0.0705885 0
0.333206 -0.0610647 0
0.341109 -0.0672646 0
0.212678 -0.0604267 0
0.218814 -0.0605402 0
0.356736 -0.0784719 0
0.194907 -0.0572732 0
0.333145 -0.0634458 0
0.357858 -0.0788265 0
0.327177 -0.0733525 0
0.114484 -0.0301053 0
0.21326 -0.0618802 0
0.207155 -0.0610093 0
0.333073 -0.0657992 0
0.207291 -0.0612436 0
0.347767 -0.076 0
0.20749 -0.0615917 0
0.323215 -0.0600793 0
0.271597 -0.067462 0
0.352919 -0.0799135 0
0.207775 -0.0621011 0
0.213762 -0.0633713 0
0.332965 -0.0687414 0
0.32322 -0.0616999 0
0.202319 -0.0613147 0
0.183253 -0.055625 0
0.208169 -0.0628364 0
0.323219 -0.0635308 0
0.188616 -0.057862 0
0.340421 -0.0761954 0
0.198086 -0.0610914 0
0.332838 -0.0716425 0
0.208695 -0.0638839 0
0.214362 -0.0653186 0
0.323211 -0.0656557 0
0.355147 -0.0858067 0
0.228548 -0.0673818 0
0.346911 -0.082388 0
0.323188 -0.06818 0
0.209364 -0.0653574 0
0.193445 -0.0609718 0
0.29177 -0.0757693 0
0.332652 -0.0752347 0
0.214935 -0.0672966 0
0.150956 -0.0458529 0
0.323144 -0.0712325 0
0.332437 -0.0787665 0
0.21017 -0.0674031 0
0.0618029 -0.0154926 0
0.345954 -0.0885663 0
0.323063 -0.074964 0
0.181822 -0.0587561 0
0.215952 -0.0699173 0
0.339315 -0.0866897 0
0.332129 -0.0830802 0
0.345163 -0.0918919 0
0.204597 -0.0678725 0
0.204661 -0.0679922 0
0.204725 -0.0681121 0
0.204818 -0.0682891 0
0.311725 -0.0867357 0
0.20491 -0.0684666 0
0.211101 -0.070201 0
0.349624 -0.0941789 0
0.205041 -0.0687246 0
0.322921 -0.0795426 0
0.205171 -0.0689838 0
0.205353 -0.0693548 0
0.199759 -0.0675797 0
0.1918 -0.0646192 0
0.312879 -0.0735793 0
0.217606 -0.0726024 0
0.205531 -0.0697281 0
0.112627 -0.0318402 0
0.331776 -0.0873067 0
0.312882 -0.0744588 0
0.254431 -0.0791904 0
0.205775 -0.070254 0
0.312884 -0.0753352 0
0.344588 -0.0956425 0
0.206012 -0.0707843 0
0.312884 -0.0763098 0
0.312883 -0.0772808 0
0.206328 -0.0715202 0
0.32268 -0.0851426 0
0.312879 -0.0783884 0
0.201179 -0.0700559 0
0.206631 -0.0722637 0
0.312872 -0.0794913 0
0.212142 -0.073981 0
0.331282 -0.0923821 0
0.185673 -0.0641806 0
0.312861 -0.0807798 0
0.18021 -0.0618376 0
0.326049 -0.0966727 0
0.222285 -0.0762159 0
0.20702 -0.073281 0
0.312847 -0.0820621 0
0.337588 -0.0987023 0
0.20739 -0.0743105 0
0.312825 -0.0835907 0
0.343069 -0.102523 0
0 0 0
0.312798 -0.0851106 0
0.322281 -0.0919294 0
0.330722 -0.0973352 0
0.207835 -0.0757037 0
0.312758 -0.0869491 0
0.189778 -0.0684705 0
0.229549 -0.0806501 0
0.312711 -0.0887749 0
0.20825 -0.0771201 0
0.193477 -0.0708683 0
0.213277 -0.0790726 0
0.312643 -0.091002 0
0.201182 -0.0751703 0
0.201299 -0.0754089 0
0.20147 -0.0757626 0
0.196705 -0.0736522 0
0.329954 -0.103167 0
0.208731 -0.0790144 0
0.334029 -0.10755 0
0.201712 -0.0762789 0
0.312563 -0.0932103 0
0.293203 -0.0970118 0
0.178401 -0.0648717 0
0.321638 -0.100038 0
0.202046 -0.0770214 0
0.340097 -0.110148 0
0.312449 -0.095909 0