# vtk DataFile Version 3.0
File generated from DClib
ASCII

DATASET UNSTRUCTURED_GRID
POINTS 1909 float
50 0 0 
48.75 0 0 
50 1.66667 0 
47.5 0 0 
50 3.33333 0 
46.25 0 0 
50 5 0 
45 0 0 
43.75 0 0 
50 6.66667 0 
43 2 0 
42.5 0 0 
50 8.33333 0 
43 4.66667 0 
41.25 0 0 
41.075 2 0 
50 10 0 
40 0 0 
43 7.33333 0 
39.15 2 0 
38.75 0 0 
43 10 0 
37.5 0 0 
37.225 2 0 
36.25 0 0 
36 4 0 
35.3 2 0 
36 5 0 
35 0 0 
35.325 4 0 
36 6 0 
36 7 0 
34.65 4 0 
36 8 0 
33.75 0 0 
33.975 4 0 
36 9 0 
33.375 2 0 
33.3 4 0 
36 10 0 
32.5 0 0 
32.625 4 0 
33 6 0 
31.95 4 0 
33 7.45455 0 
31.45 2 0 
31.25 0 0 
31.95 6 0 
33 8.79545 0 
31.275 4 0 
33 10 0 
30.6 4 0 
30 0 0 
30.9 6 0 
29.925 4 0 
29.525 2 0 
29.85 6 0 
29.25 4 0 
28.75 0 0 
30 8 0 
30 8.45455 0 
28.575 4 0 
29.625 8 0 
30 8.90909 0 
28.8 6 0 
30 9.25 0 
29.782 8.90909 0 
30 9.59091 0 
29.9487 9.59091 0 
29.25 8 0 
29.7462 9.25 0 
30 9.79545 0 
29.897 9.59091 0 
29.564 8.90909 0 
29.9547 9.79545 0 
29.3462 8.45455 0 
29.84 9.59091 0 
30 10 0 
29.8975 9.79545 0 
29.9882 10 0 
29.9902 10.0098 0 
29.7827 9.59091 0 
29.9765 10 0 
29.9804 10.0196 0 
29.9667 10.0098 0 
29.9591 10 0 
29.9686 10.0196 0 
29.9659 10.0341 0 
29.9569 10.0196 0 
29.9418 10 0 
29.9395 10.0196 0 
29.9515 10.0485 0 
29.932 10.0098 0 
29.9424 10.0341 0 
29.8241 9.79545 0 
29.7181 9.59091 0 
29.9166 10 0 
29.9397 10.0485 0 
29.9222 10.0196 0 
29.9279 10.0485 0 
29.9305 10.0695 0 
29.8914 10 0 
29.9077 10.0341 0 
27.9 4 0 
29.897 10.0196 0 
29.9106 10.0485 0 
29.8817 10.0098 0 
29.907 10.0695 0 
29.8933 10.0485 0 
29.9095 10.0905 0 
29.8719 10.0196 0 
27.6 2 0 
29.8556 10 0 
29.8978 10.0905 0 
29.6531 9.59091 0 
29.3437 8.90909 0 
27.5 0 0 
29.8681 10.0485 0 
29.886 10.0905 0 
29.8574 10.0341 0 
29.4839 9.25 0 
29.8723 10.0695 0 
29.7289 9.79545 0 
29.836 10.0196 0 
29.8687 10.0905 0 
29.8197 10 0 
29.8797 10.1203 0 
29.843 10.0485 0 
29.8513 10.0905 0 
29.81 10.0098 0 
29.8561 10.1203 0 
29.8002 10.0196 0 
29.8221 10.0695 0 
29.8072 10.0485 0 
29.8262 10.0905 0 
29.5782 9.59091 0 
29.8498 10.1502 0 
29.7695 10 0 
29.7858 10.0341 0 
29.838 10.1502 0 
29.8215 10.1203 0 
29.8011 10.0905 0 
29.8262 10.1502 0 
29.7714 10.0485 0 
28.875 8 0 
29.75 10.0196 0 
29.8089 10.1502 0 
29.7654 10.0905 0 
29.7193 10 0 
29.7916 10.1502 0 
29.7505 10.0695 0 
29.8079 10.1921 0 
29.7713 10.1203 0 
29.7096 10.0098 0 
29.6047 9.79545 0 
29.503 9.59091 0 
29.7213 10.0485 0 
29.7665 10.1502 0 
29.6999 10.0196 0 
29.7844 10.1921 0 
29.7296 10.0905 0 
29.6856 10.0341 0 
29.7414 10.1502 0 
29.7497 10.1921 0 
29.6503 10 0 
29.7661 10.2339 0 
29.6712 10.0485 0 
29.6999 10.1203 0 
29.7543 10.2339 0 
29.6796 10.0905 0 
29.7057 10.1502 0 
29.7425 10.2339 0 
29.1235 8.90909 0 
29.6309 10.0196 0 
29.6504 10.0695 0 
29.4146 9.59091 0 
29.7252 10.2339 0 
29.6996 10.1921 0 
29.6701 10.1502 0 
29.7079 10.2339 0 
29.6296 10.0905 0 
29.5813 10 0 
29.6023 10.0485 0 
29.5716 10.0098 0 
29.6828 10.2339 0 
29.7086 10.2914 0 
29.2101 9.25 0 
29.562 10.0196 0 
29.6201 10.1502 0 
29.6578 10.2339 0 
29.4428 9.79545 0 
29.5999 10.1203 0 
29.6849 10.2914 0 
29.6283 10.1921 0 
29.5477 10.0341 0 
29.3259 9.59091 0 
29.5608 10.0905 0 
29.5335 10.0485 0 
29.6221 10.2339 0 
29.6503 10.2914 0 
29.5702 10.1502 0 
29.4881 10 0 
29.5128 10.0695 0 
29.6511 10.3489 0 
29.5866 10.2339 0 
29.6392 10.3489 0 
29.4689 10.0196 0 
29.6002 10.2914 0 
29.6273 10.3489 0 
29.4921 10.0905 0 
29.61 10.3489 0 
29.5286 10.1921 0 
29.5016 10.1502 0 
29.5368 10.2339 0 
29.5926 10.3489 0 
29.4405 10.0485 0 
29.2199 9.59091 0 
29.4626 10.1203 0 
29.3949 10 0 
28.9 8.90909 0 
29.5676 10.3489 0 
29.5291 10.2914 0 
29.3853 10.0098 0 
28.6923 8.45455 0 
29.487 10.2339 0 
29.5426 10.3489 0 
29.3758 10.0196 0 
29.5734 10.4266 0 
29.4331 10.1502 0 
29.3993 10.0905 0 
28.5 8 0 
29.3617 10.0341 0 
29.5496 10.4266 0 
29.5071 10.3489 0 
29.2327 9.79545 0 
29.3475 10.0485 0 
29.1136 9.59091 0 
29.4187 10.2339 0 
29.5148 10.4266 0 
29.4716 10.3489 0 
29.3918 10.1921 0 
29.3271 10.0695 0 
29.4298 10.2914 0 
29.2714 10 0 
29.3406 10.1502 0 
28.9208 9.25 0 
29.3066 10.0905 0 
29.4648 10.4266 0 
29.422 10.3489 0 
29.4958 10.5042 0 
29.2524 10.0196 0 
27.75 6 0 
29.3504 10.2339 0 
29.4837 10.5042 0 
29.4718 10.5042 0 
29.2774 10.1203 0 
29.4543 10.5042 0 
29.3724 10.3489 0 
29.2244 10.0485 0 
29.4369 10.5042 0 
29.3938 10.4266 0 
28.9853 9.59091 0 
29.2481 10.1502 0 
28.6766 8.90909 0 
29.4119 10.5042 0 
29.2934 10.2914 0 
27.225 4 0 
29.148 10 0 
29.2582 10.2339 0 
29.1837 10.0905 0 
29.3869 10.5042 0 
29.1385 10.0098 0 
29.3044 10.3489 0 
29.1291 10.0196 0 
29.2072 10.1921 0 
29.3514 10.5042 0 
29.1152 10.0341 0 
29.3929 10.6071 0 
29.2949 10.4266 0 
29.1013 10.0485 0 
29.3686 10.6071 0 
29.316 10.5042 0 
29.2364 10.3489 0 
28.9623 9.79545 0 
29.1257 10.1502 0 
29.1662 10.2339 0 
29.0811 10.0695 0 
28.8566 9.59091 0 
29.3336 10.6071 0 
29.2666 10.5042 0 
29.0609 10.0905 0 
28.9875 10 0 
29.2835 10.6071 0 
29.1448 10.3489 0 
29.0321 10.1203 0 
29.2173 10.5042 0 
29.1098 10.2914 0 
28.125 8 0 
28.9688 10.0196 0 
29.1594 10.4266 0 
28.611 9.25 0 
29.29 10.71 0 
28.4486 8.90909 0 
29.0443 10.2339 0 
29.0033 10.1502 0 
29.2777 10.71 0 
28.9413 10.0485 0 
29.2128 10.6071 0 
29.2655 10.71 0 
29.1497 10.5042 0 
29.2478 10.71 0 
28.7003 9.59091 0 
29.0533 10.3489 0 
29.2303 10.71 0 
28.9629 10.1921 0 
28.9013 10.0905 0 
29.2051 10.71 0 
29.0822 10.5042 0 
29.1801 10.71 0 
28.827 10 0 
29.1144 10.6071 0 
28.8177 10.0098 0 
28.9225 10.2339 0 
28.8085 10.0196 0 
29.1447 10.71 0 
28.7949 10.0341 0 
28.8443 10.1502 0 
28.977 10.4266 0 
28.9322 10.3489 0 
29.1094 10.71 0 
28.7813 10.0485 0 
28.9912 10.5042 0 
29.1562 10.8438 0 
28.5436 9.59091 0 
28.7615 10.0695 0 
28.8669 10.2914 0 
29.1313 10.8438 0 
28.6184 9.79545 0 
29.0602 10.71 0 
28.2207 8.90909 0 
28.7418 10.0905 0 
28.0378 8.45455 0 
28.9798 10.6071 0 
29.0958 10.8438 0 
29.0112 10.71 0 
28.9005 10.5042 0 
28.7136 10.1203 0 
28.7644 10.2339 0 
28.8113 10.3489 0 
29.0454 10.8438 0 
28.6223 10 0 
28.6854 10.1502 0 
28.2746 9.25 0 
28.9441 10.71 0 
28.6042 10.0196 0 
27.75 8 0 
28.9747 10.8438 0 
28.6459 10.1921 0 
28.5773 10.0485 0 
29.0225 10.9775 0 
28.3532 9.59091 0 
28.7804 10.5042 0 
28.736 10.4266 0 
28.8772 10.71 0 
29.0097 10.9775 0 
28.9971 10.9775 0 
28.799 10.6071 0 
28.9791 10.9775 0 
28.5384 10.0905 0 
28.6064 10.2339 0 
28.6543 10.3489 0 
28.9611 10.9775 0 
28.8769 10.8438 0 
27.9867 8.90909 0 
26.25 0 0 
28.9358 10.9775 0 
28.7871 10.71 0 
28.9106 10.9775 0 
28.6607 10.5042 0 
28.4177 10 0 
26.55 4 0 
28.552 10.2914 0 
28.483 10.1502 0 
28.4087 10.0098 0 
28.8751 10.9775 0 
28.3998 10.0196 0 
28.3866 10.0341 0 
28.8399 10.9775 0 
28.6974 10.71 0 
28.3735 10.0485 0 
28.1625 9.59091 0 
28.7436 10.8438 0 
28.4976 10.3489 0 
28.3543 10.0695 0 
28.791 10.9775 0 
28.4052 10.2339 0 
28.3352 10.0905 0 
28.8519 11.1481 0 
28.1869 9.79545 0 
28.5607 10.6071 0 
28.5053 10.5042 0 
28.7423 10.9775 0 
28.8258 11.1481 0 
28.308 10.1203 0 
28.5787 10.71 0 
27.904 9.25 0 
28.7893 11.1481 0 
28.424 10.4266 0 
27.7528 8.90909 0 
28.2807 10.1502 0 
28.6758 10.9775 0 
27.375 8 0 
28.7383 11.1481 0 
28.1619 10 0 
28.5649 10.8438 0 
28.2425 10.1921 0 
28.6096 10.9775 0 
28.1444 10.0196 0 
28.298 10.3489 0 
28.4605 10.71 0 
26.7 6 0 
27.9315 9.59091 0 
28.3503 10.5042 0 
28.6676 11.1481 0 
28.1187 10.0485 0 
28.2042 10.2339 0 
28.5207 10.9775 0 
28.0813 10.0905 0 
28.6814 11.3186 0 
27.3818 8.45455 0 
28.6679 11.3186 0 
28.1516 10.2914 0 
28.5703 11.1481 0 
28.6544 11.3186 0 
28.6358 11.3186 0 
27.5109 8.90909 0 
28.3072 10.71 0 
28.6173 11.3186 0 
28.2524 10.6071 0 
28.4322 10.9775 0 
28.028 10.1502 0 
28.5915 11.3186 0 
28.0989 10.3489 0 
28.33 10.8438 0 
28.5658 11.3186 0 
28.153 10.5042 0 
27.9061 10 0 
27.8975 10.0098 0 
28.5303 11.3186 0 
28.4384 11.1481 0 
27.7002 9.59091 0 
27.889 10.0196 0 
27.8765 10.0341 0 
28.4949 11.3186 0 
28.3154 10.9775 0 
27.9532 10.2339 0 
27.8639 10.0485 0 
28.0276 10.4266 0 
28.1544 10.71 0 
27.8457 10.0695 0 
27.4909 9.25 0 
28.4463 11.3186 0 
27 8 0 
27.8275 10.0905 0 
28.3979 11.3186 0 
27.8015 10.1203 0 
27.6542 9.79545 0 
25.675 2 0 
28.1991 10.9775 0 
27.2691 8.90909 0 
27.9563 10.5042 0 
28.4682 11.5318 0 
28.2625 11.1481 0 
27.7755 10.1502 0 
28.3322 11.3186 0 
27.8502 10.3489 0 
28.4401 11.5318 0 
25.875 4 0 
27.7391 10.1921 0 
28.4019 11.5318 0 
28.0268 10.8438 0 
28.2668 11.3186 0 
27.9602 10.71 0 
28.3498 11.5318 0 
27.4223 9.59091 0 
27.7026 10.2339 0 
27.5927 10 0 
28.0486 10.9775 0 
27.8616 10.6071 0 
27.5762 10.0196 0 
28.1794 11.3186 0 
28.2786 11.5318 0 
27.5519 10.0485 0 
27.6524 10.2914 0 
28.0319 11.1481 0 
27.7108 10.5042 0 
27.5167 10.0905 0 
27.0169 8.90909 0 
28.0924 11.3186 0 
27.6021 10.3489 0 
27.8988 10.9775 0 
28.1818 11.5318 0 
27.7667 10.71 0 
26.625 8 0 
28.255 11.745 0 
27.4664 10.1502 0 
28.2402 11.745 0 
28.2256 11.745 0 
28.2059 11.745 0 
27.978 11.3186 0 
26.7234 8.45455 0 
27.0259 9.25 0 
27.5342 10.4266 0 
28.1863 11.745 0 
27.1442 9.59091 0 
28.0516 11.5318 0 
28.1598 11.745 0 
27.3959 10.2339 0 
28.1334 11.745 0 
27.2793 10 0 
27.2714 10.0098 0 
27.2635 10.0196 0 
27.7086 10.9775 0 
27.6431 10.8438 0 
28.0975 11.745 0 
27.8643 11.3186 0 
27.4661 10.5042 0 
27.2518 10.0341 0 
27.2401 10.0485 0 
28.0617 11.745 0 
26.7648 8.90909 0 
27.5255 10.71 0 
27.7353 11.1481 0 
27.2231 10.0695 0 
28.0133 11.745 0 
27.2061 10.0905 0 
27.8791 11.5318 0 
27.2986 10.3489 0 
27.1818 10.1203 0 
27.9651 11.745 0 
27.3758 10.6071 0 
27.0077 9.79545 0 
27.7174 11.3186 0 
27.1576 10.1502 0 
25 0 0 
27.5193 10.9775 0 
27.9003 11.745 0 
27.1236 10.1921 0 
26.25 8 0 
27.9939 12.0061 0 
25.65 6 0 
27.8359 11.745 0 
26.8136 9.59091 0 
27.0896 10.2339 0 
27.9626 12.0061 0 
27.2853 10.71 0 
25.2 4 0 
27.5713 11.3186 0 
27.9218 12.0061 0 
26.4998 8.90909 0 
27.167 10.5042 0 
27.6541 11.5318 0 
27.0427 10.2914 0 
27.7503 11.745 0 
26.9033 10 0 
27.8677 12.0061 0 
26.8882 10.0196 0 
26.8659 10.0485 0 
26.9958 10.3489 0 
27.2836 10.9775 0 
27.6652 11.745 0 
27.3609 11.1481 0 
27.7955 12.0061 0 
26.499 9.25 0 
[...]
POINT_DATA 1909
SCALARS phi float 1
LOOKUP_TABLE default
VECTORS Displacement float
0 0 0
0 0 0
0 -0.00115393 0
0 0 0
0 -0.00157345 0
0 0 0
0 -0.00132133 0
0 0 0
0 0 0
0 -0.000472758 0
0.00340694 -0.00105434 0
0 0 0
0 0.000935577 0
0.00667777 -0.00064808 0
0 0 0
0.00457204 -0.0010421 0
0 0.00283146 0
0 0 0
0.00894193 0.00149705 0
0.00583969 -0.00105975 0
0 0 0
0.0102839 0.00485757 0
0 0 0
0.00718345 -0.00113026 0
0 0 0
0.0137261 -0.000802968 0
0.00853264 -0.0012533 0
0.0163395 -2.98353e-05 0
0 0 0
0.014691 -0.000871069 0
0.018324 0.001053 0
0.0197544 0.00237723 0
0.0156288 -0.000953414 0
0.0207608 0.00383982 0
0 0 0
0.0165555 -0.00108415 0
0.021391 0.00538644 0
0.00981035 -0.0014218 0
0.0174514 -0.00123192 0
0.0217117 0.00693949 0
0 0 0
0.0182994 -0.00140805 0
0.0237001 0.000352917 0
0.0191056 -0.00160105 0
0.0263182 0.00241848 0
0.0109472 -0.0016291 0
0 0 0
0.0255094 -0.000390891 0
0.0276886 0.0049228 0
0.0198519 -0.00181446 0
0.0277303 0.00757476 0
0.0205433 -0.00204388 0
0 0 0
0.0270162 -0.00112922 0
0.0211713 -0.00229027 0
0.0118829 -0.00187113 0
0.0282944 -0.00191591 0
0.0217331 -0.00255275 0
0 0 0
0.0331353 -0.000239615 0
0.034063 0.000329589 0
0.0222289 -0.00282955 0
0.0337124 -0.000749198 0
0.0349714 0.00098499 0
0.0293504 -0.00276693 0
0.0355514 0.00160155 0
0.0353938 0.000576115 0
0.0360423 0.00233899 0
0.0361755 0.00212431 0
0.0342223 -0.0012608 0
0.0360709 0.000992184 0
0.0362646 0.00285593 0
0.0362907 0.00193051 0
0.0357728 0.00016427 0
0.0363904 0.00256728 0
0.0351348 -0.000709161 0
0.0364017 0.00173898 0
0.0362649 0.00345343 0
0.0365349 0.00228583 0
0.0363215 0.00339228 0
0.0374246 0.00380213 0
0.0365061 0.00156859 0
0.0363848 0.00333136 0
0.037767 0.00382373 0
0.0373079 0.00358844 0
0.0364783 0.0032256 0
0.0377397 0.00371361 0
0.0378653 0.00370441 0
0.0377091 0.0036126 0
0.0365729 0.00312801 0
0.0376504 0.00346418 0
0.0379319 0.00358668 0
0.0372476 0.00330356 0
0.0378445 0.00350833 0
0.0367147 0.0020197 0
0.0366236 0.00140369 0
0.0367059 0.00298325 0
0.0379268 0.00349276 0
0.0375987 0.00332428 0
0.0379223 0.0034019 0
0.0380452 0.00343176 0
0.0368345 0.00285868 0
0.0378006 0.00324941 0
0.0226493 -0.00312427 0
0.0375478 0.00313754 0
0.0379161 0.00327759 0
0.0372651 0.00296127 0
0.0380364 0.00325893 0
0.0379092 0.0031634 0
0.0381602 0.00328442 0
0.0375295 0.00298081 0
0.0125622 -0.00214585 0
0.0370049 0.0027018 0
0.0381555 0.00320216 0
0.0367437 0.00125511 0
0.0361309 -0.000235135 0
0 0 0
0.0379037 0.00302083 0
0.0381521 0.00312717 0
0.0377557 0.00294867 0
0.0365262 0.000435794 0
0.0380312 0.00304516 0
0.036952 0.00177013 0
0.0375415 0.00279109 0
0.0381493 0.00302709 0
0.0371656 0.00256733 0
0.0383259 0.00309272 0
0.0379008 0.00289612 0
0.0381507 0.00294052 0
0.0374146 0.00261938 0
0.0383238 0.00296433 0
0.0375938 0.00263465 0
0.03804 0.00280957 0
0.0379129 0.00273792 0
0.0381576 0.00283055 0
0.0368862 0.0011006 0
0.0384904 0.00293189 0
0.0373683 0.00241192 0
0.0377871 0.00262501 0
0.038493 0.00288036 0
0.038331 0.00281514 0
0.0381702 0.00273072 0
0.0384968 0.00283341 0
0.0379363 0.0025967 0
0.0347161 -0.00178341 0
0.0376879 0.00244949 0
0.0385043 0.00277041 0
0.0381957 0.00260145 0
0.0375538 0.00226559 0
0.0385134 0.00271112 0
0.0380873 0.00253719 0
0.0387551 0.00276664 0
0.0383595 0.00263511 0
0.0376853 0.00228032 0
0.0372646 0.00151044 0
0.0370351 0.000953272 0
0.0379891 0.00241654 0
0.0385292 0.00263011 0
0.0378022 0.00228463 0
0.0387603 0.00269241 0
0.0382291 0.00248132 0
0.0379387 0.0022727 0
0.0385479 0.00255299 0
0.0387752 0.00259131 0
0.0377764 0.00208921 0
0.0390053 0.00263639 0
0.0380613 0.00225345 0
0.0384249 0.00241088 0
0.0390083 0.00260625 0
0.0382872 0.00232604 0
0.0385794 0.00244808 0
0.0390122 0.00257604 0
0.0364678 -0.000623668 0
0.0379562 0.00208562 0
0.0382134 0.00221779 0
0.0372092 0.000785135 0
0.0390194 0.00253183 0
0.0388083 0.00245304 0
0.0386152 0.00234833 0
0.0390281 0.00248788 0
0.0383552 0.00218285 0
0.0379701 0.00190539 0
0.0381794 0.00205468 0
0.0380442 0.00190081 0
0.0390427 0.00242501 0
0.0393409 0.00249087 0
0.0369854 -8.095e-05 0
0.0381159 0.00189445 0
0.0386715 0.00221479 0
0.0390595 0.00236278 0
0.0376501 0.00118839 0
0.0385473 0.00213454 0
0.0393457 0.00243771 0
0.0388707 0.00226728 0
0.0382141 0.00188211 0
0.0373871 0.000616479 0
0.038459 0.00199783 0
0.0383084 0.00186807 0
0.0390861 0.00227524 0
0.0393573 0.00235915 0
0.0387312 0.00208619 0
0.0381917 0.00167075 0
0.0384407 0.00184498 0
0.039643 0.00235982 0
0.0391154 0.00218832 0
0.0396452 0.00233541 0
0.0383095 0.001656 0
0.0393818 0.00224445 0
0.0396479 0.0023108 0
0.0385683 0.00181958 0
0.0396528 0.00227415 0
0.0389755 0.00201731 0
0.0388203 0.00191116 0
0.0391602 0.00206694 0
0.0396585 0.00223702 0
0.038481 0.00162884 0
0.0375896 0.000410872 0
0.0387436 0.00178036 0
0.038386 0.00143453 0
0.0367923 -0.00101234 0
0.0396682 0.00218265 0
0.0394278 0.0020788 0
0.0384409 0.00142691 0
0.0360242 -0.00172547 0
0.039208 0.00194535 0
0.0396793 0.00212739 0
0.0384957 0.00141888 0
0.0400146 0.00219464 0
0.038912 0.00173798 0
0.0387196 0.00158169 0
0.035158 -0.00232121 0
0.0385735 0.00140609 0
0.0400182 0.00214686 0
0.0396974 0.00204752 0
0.0380842 0.000748829 0
0.0386509 0.00139227 0
0.0377895 0.000200088 0
0.0392786 0.00177642 0
0.0400261 0.00207508 0
0.0397177 0.00196624 0
0.0391376 0.00167442 0
0.0387614 0.0013704 0
0.0395063 0.00184171 0
0.0386158 0.00114158 0
0.0390406 0.00150287 0
0.0374505 -0.00061847 0
0.0388701 0.0013467 0
0.0400423 0.00196784 0
0.0397493 0.00185053 0
0.040344 0.0020319 0
0.0387126 0.00112317 0
0.0301684 -0.00368289 0
0.0393526 0.00160646 0
0.0403456 0.00200802 0
0.0403475 0.00198393 0
0.0390216 0.00130983 0
0.0403507 0.00194824 0
0.0397841 0.0017328 0
0.0388548 0.00109309 0
0.0403545 0.00191208 0
0.0400729 0.00180939 0
0.0380156 -6.13311e-05 0
0.0391693 0.00126989 0
0.037101 -0.00140617 0
0.0403608 0.00185904 0
0.0396311 0.00150699 0
0.0229998 -0.00342953 0
0.0388243 0.00084439 0
0.0394568 0.00137499 0
0.0390566 0.00104403 0
0.0403681 0.0018051 0
0.0388702 0.000834312 0
0.0398361 0.00156817 0
0.0389159 0.0008239 0
0.0393695 0.0012092 0
0.0403799 0.00172695 0
0.0389819 0.000808042 0
0.0407298 0.00181514 0
0.0401272 0.00157878 0
0.0390475 0.000791537 0
0.0407328 0.00176565 0
0.0403934 0.00164729 0
0.0398918 0.00140119 0
0.0385614 0.000155663 0
0.0393339 0.000964291 0
0.0395621 0.00114366 0
0.0391416 0.000766404 0
0.0382328 -0.000330061 0
0.0407386 0.00169229 0
0.0404147 0.00153363 0
0.0392347 0.000739974 0
0.0390721 0.0004619 0
0.0407496 0.00158397 0
0.0399711 0.00117286 0
0.0393651 0.000700054 0
0.0404385 0.00141775 0
0.0398144 0.00104661 0
0.0355684 -0.00287371 0
0.0391549 0.000438809 0
0.0402167 0.00124995 0
0.0379075 -0.00121327 0
0.0410662 0.0015936 0
0.0373942 -0.00181535 0
0.0397006 0.000836092 0
0.0394929 0.000657717 0
0.0410675 0.00156795 0
0.0392761 0.000402788 0
0.04077 0.00142519 0
0.041069 0.00154221 0
0.0404745 0.00125536 0
0.0410714 0.00150463 0
0.038476 -0.000664501 0
0.0400527 0.000942495 0
0.0410741 0.00146676 0
0.0396673 0.000594503 0
0.0394486 0.000346679 0
0.0410786 0.00141178 0
0.0405135 0.00109009 0
0.0410836 0.00135619 0
0.0392988 7.25066e-05 0
0.0408062 0.00119517 0
0.0393377 5.99323e-05 0
0.0398362 0.00052713 0
0.0393764 4.71401e-05 0
0.0410916 0.00127627 0
0.0394328 2.7891e-05 0
0.039687 0.000259254 0
0.0403527 0.000792481 0
0.0401625 0.000633824 0
0.0411006 0.00119519 0
0.0394888 8.16628e-06 0
0.04057 0.000863167 0
0.0414408 0.00129717 0
0.0387033 -0.00100653 0
0.0395692 -2.12805e-05 0
0.0400594 0.000428174 0
0.0414434 0.00124285 0
0.0390739 -0.000632191 0
0.0411147 0.0010801 0
0.0376643 -0.00223488 0
0.0396488 -5.1691e-05 0
0.0367549 -0.00279671 0
0.0408669 0.000867254 0
0.0414478 0.00116403 0
0.0411303 0.000963084 0
0.0406293 0.000632857 0
0.0397605 -9.66774e-05 0
0.0400052 0.00012341 0
0.0402719 0.000322651 0
0.0414556 0.0010497 0
0.0395627 -0.000428596 0
0.0398702 -0.000143514 0
0.0383439 -0.00188558 0
0.0411541 0.000799529 0
0.0396332 -0.000456333 0
0.0359238 -0.00344118 0
0.0414694 0.000884616 0
0.0400203 -0.000212133 0
0.0397361 -0.00049867 0
0.041755 0.000990021 0
0.0389545 -0.00143009 0
0.0407106 0.000323069 0
0.040542 0.000170895 0
0.04118 0.000633155 0
0.0417562 0.000961225 0
0.0417574 0.000932431 0
0.0409615 0.000409016 0
0.0417593 0.000891197 0
0.0398826 -0.000562961 0
0.0401662 -0.00028409 0
0.040411 -8.58595e-05 0
0.0417614 0.000849834 0
0.041493 0.000648295 0
0.0379166 -0.00267347 0
0 0 0
0.0417646 0.000790674 0
0.0412178 0.000404725 0
0.0417681 0.000731143 0
0.040793 9.59031e-06 0
0.0398008 -0.000936858 0
0.0232679 -0.00375671 0
0.0403598 -0.000388268 0
0.0400856 -0.000660294 0
0.0398335 -0.000951715 0
0.0417735 0.000646544 0
0.039866 -0.000966741 0
0.0399136 -0.000989199 0
0.0417795 0.00056116 0
0.0412579 0.0001726 0
0.0399609 -0.00101202 0
0.0391825 -0.00186078 0
0.0415322 0.000314108 0
0.0405452 -0.000498059 0
0.0400288 -0.00104574 0
0.0417886 0.000441043 0
0.0403573 -0.000807213 0
0.0400959 -0.0010802 0
0.0420784 0.000582159 0
0.0395985 -0.00165438 0
0.0410973 -0.000216912 0
0.0408997 -0.000403155 0
0.0417986 0.000319506 0
0.0420806 0.000519945 0
0.0401902 -0.00113057 0
0.0413135 -0.000139822 0
0.0387494 -0.0026513 0
0.0420841 0.000432026 0
0.0407821 -0.000654596 0
0.0381411 -0.00312122 0
0.0402829 -0.00118239 0
0.0418136 0.000150751 0
0.0362352 -0.00402167 0
0.0420897 0.000307196 0
0.0400659 -0.00157889 0
0.0415935 -0.000150876 0
0.0404098 -0.00125734 0
0.0418298 -2.02752e-05 0
0.0401249 -0.00161094 0
0.0407063 -0.00102788 0
0.0413706 -0.000456507 0
0.030731 -0.00466017 0
0.0394274 -0.00238932 0
0.0410038 -0.000819899 0
0.0420989 0.000130218 0
0.0402109 -0.0016593 0
0.0405334 -0.00133498 0
0.0418533 -0.000254035 0
0.0403333 -0.00173168 0
0.0423269 0.000155603 0
0.0373238 -0.00392209 0
0.0423279 0.000121914 0
0.0406977 -0.00144601 0
0.0421138 -0.00011919 0
0.0423289 8.83169e-05 0
0.0423304 4.14786e-05 0
0.0383459 -0.00359092 0
0.0414452 -0.000873749 0
0.042332 -5.34901e-06 0
0.0412742 -0.0010512 0
0.0418781 -0.000491002 0
0.0405028 -0.0018393 0
0.0423343 -7.09842e-05 0
0.0408554 -0.00156178 0
0.0416822 -0.000784991 0
0.0423368 -0.000136766 0
0.0411301 -0.0013563 0
0.040296 -0.00222687 0
0.040323 -0.00224382 0
0.0423405 -0.000228799 0
0.0421375 -0.000467247 0
0.0396406 -0.00292399 0
0.0403499 -0.0022609 0
0.0403893 -0.00228633 0
0.0423443 -0.000321259 0
0.0419124 -0.000809044 0
0.04073 -0.00199852 0
0.0404284 -0.00231204 0
0.0410576 -0.00172523 0
0.0415186 -0.0012953 0
0.0404845 -0.00234982 0
0.0391116 -0.00352684 0
0.04235 -0.000449729 0
0.0364892 -0.0046142 0
0.0405399 -0.00238818 0
0.042356 -0.000579076 0
0.0406178 -0.00244385 0
0.0400915 -0.00294591 0
0.012932 -0.00245025 0
0.0419475 -0.00113104 0
0.0385214 -0.0040671 0
0.0412474 -0.00189645 0
0.0425424 -0.000403945 0
0.0421731 -0.00094648 0
0.0406943 -0.00250068 0
0.0423647 -0.000756898 0
0.0410223 -0.00223287 0
0.0425444 -0.000478172 0
0.0234606 -0.0040879 0
0.0407991 -0.00258216 0
0.0425471 -0.000579603 0
0.0417986 -0.00162974 0
0.0423738 -0.00093624 0
0.0416078 -0.00183815 0
0.0425512 -0.000719796 0
0.0398571 -0.00357206 0
0.0409012 -0.00266584 0
0.0405333 -0.00302625 0
0.0419932 -0.00155448 0
0.0414797 -0.00213454 0
0.0405815 -0.00306226 0
0.0423865 -0.00117944 0
0.0425571 -0.000914216 0
0.0406518 -0.00311623 0
0.0410368 -0.00278443 0
0.0422232 -0.00159503 0
0.0413785 -0.00257551 0
0.0407516 -0.00319627 0
0.038675 -0.00456866 0
0.0423996 -0.00142493 0
0.041167 -0.00290699 0
0.0420375 -0.00198201 0
0.0425656 -0.00118311 0
0.0416902 -0.00238458 0
0.0366956 -0.00521845 0
0.0426655 -0.000992655 0
0.0408897 -0.00331393 0
0.0426664 -0.00103369 0
0.0426673 -0.00107455 0
0.0426685 -0.00112952 0
0.042417 -0.00175242 0
0.0377177 -0.00509473 0
0.0394123 -0.00453015 0
0.0413339 -0.00307854 0
0.0426697 -0.00118436 0
0.0400317 -0.00422453 0
0.0425778 -0.0015523 0
0.0426714 -0.00125913 0
0.0410745 -0.00348559 0
0.042673 -0.00133385 0
0.0407223 -0.00382887 0
0.0407441 -0.00384773 0
0.0407657 -0.00386669 0
0.0420904 -0.00253189 0
0.0419317 -0.00272609 0
0.0426753 -0.00143619 0
0.0424341 -0.00208285 0
0.0414906 -0.00325684 0
0.0407975 -0.00389483 0
0.040829 -0.0039232 0
0.0426776 -0.00153864 0
0.0387986 -0.00507435 0
0.0417808 -0.00307151 0
0.0422857 -0.0024544 0
0.0408742 -0.00396474 0
0.0426806 -0.00167863 0
0.0409188 -0.00400674 0
0.042594 -0.00205349 0
0.0413116 -0.00373441 0
0.0409814 -0.0040674 0
0.0426836 -0.001819 0
0.0416822 -0.00350304 0
0.0404863 -0.00453333 0
0.0424552 -0.00251544 0
0.0410428 -0.004129 0
0 0 0
0.0421375 -0.00308494 0
0.0426875 -0.00200941 0
0.0411267 -0.00421681 0
0.0368442 -0.00583149 0
0.0427006 -0.00175317 0
0.0310244 -0.00569324 0
0.0426913 -0.00220057 0
0.040189 -0.00500321 0
0.0412083 -0.00430642 0
0.0427023 -0.00184541 0
0.0418555 -0.00376004 0
0.0235648 -0.00444723 0
0.0424741 -0.00295109 0
0.0427045 -0.00196636 0
0.0388974 -0.00560953 0
0.0415996 -0.00409265 0
0.0426133 -0.00272373 0
0.0413165 -0.00443255 0
0.0426958 -0.002457 0
0.0408885 -0.00479434 0
0.0427072 -0.00212795 0
0.0409269 -0.00483387 0
0.0409827 -0.00489287 0
0.0414202 -0.00456199 0
0.0421859 -0.00377952 0
0.0426998 -0.00271462 0
0.0423499 -0.00356546 0
0.0427104 -0.00234596 0
0.0396251 -0.00567946 0
0.0410619 -0.00497986 0
0.0420535 -0.00410935 0
0.0424942 -0.0035095 0
0.0415526 -0.00474188 0
0.042714 -0.0026407 0
0.0427041 -0.00305526 0
0.041171 -0.00510673 0
0.0419228 -0.0046042 0
0.0389654 -0.00614708 0
0.0379357 -0.0063033 0
0.0402924 -0.00578352 0
0.0426308 -0.00360329 0
0.0416763 -0.00492754 0
0.036944 -0.00645322 0
0.042624 -0.00255646 0
0.0413163 -0.00529002 0
0.0427069 -0.00339743 0
0.0426249 -0.00260846 0
0.0427172 -0.00303758 0
0.0422207 -0.00447489 0
0.0426256 -0.00266022 0
0.0425084 -0.00407004 0
0.0426265 -0.00272684 0
0.0426274 -0.00279323 0
0.0426284 -0.00288054 0
0.0409897 -0.00575821 0
0.0418268 -0.00518217 0
0.0410068 -0.00577872 0
0.0410238 -0.00579931 0
0.0426294 -0.00296765 0
0.0410487 -0.00582982 0
0.0415014 -0.00555262 0
0.0427081 -0.00384218 0
0.0410733 -0.00586052 0
0.0426304 -0.00308356 0
0.0411086 -0.00590534 0
0.0427184 -0.00356731 0
0.0426313 -0.00319934 0
0.0411435 -0.00595054 0
0.0411922 -0.00601561 0
0.0390046 -0.00671868 0
0.0419618 -0.00544628 0
0.0426322 -0.003354 0
0.0423904 -0.00496285 0
0.0425164 -0.00477216 0
0.0412399 -0.00608144 0
0.0427062 -0.00428833 0
0.0426327 -0.0035086 0
0.0422426 -0.00532655 0
0.0406936 -0.00642876 0
0.0413049 -0.00617488 0
0.0426343 -0.00473177 0
0.0417239 -0.00592591 0
0.0426327 -0.00371458 0
0.0403512 -0.00669767 0
0.0413678 -0.0062698 0
0.0369877 -0.00708043 0
0.0427136 -0.00426522 0
0.023588 -0.00479928 0
0.0426321 -0.00392062 0
0.0421139 -0.00580321 0
0.0397146 -0.00699077 0
0.0414509 -0.0064027 0
0.0426985 -0.00485691 0
0.0423946 -0.00357574 0
0.0425121 -0.00547383 0
0.0426303 -0.00419301 0
0.0423962 -0.00369466 0
0.0415299 -0.00653835 0
0.0390117 -0.00729109 0
0.0423978 -0.0038434 0
0.04103 -0.0068874 0
0.0410598 -0.00692986 0
0.0426272 -0.00446553 0
0.0422397 -0.0061748 0
0.041969 -0.00645221 0
0.0423992 -0.00403413 0
0.0411029 -0.00699304 0
0.0416302 -0.00672577 0
0.0426844 -0.00542577 0
0.0411639 -0.00708582 0
0.0379832 -0.00753788 0
0.0426951 -0.0051693 0
0.0424001 -0.00428278 0
0.0426212 -0.0048216 0
0.0417231 -0.00691804 0
0.0412474 -0.0072204 0
0.0310405 -0.00677435 0
0.0424885 -0.00633126 0
0.0403426 -0.0076091 0
0.0423994 -0.00460951 0
0.0425995 -0.00614234 0
0.0369836 -0.0077132 0
0.0426128 -0.00517769 0
0.0423623 -0.00666862 0
0.0413576 -0.00741343 0
0.0418346 -0.0071801 0
0.0389845 -0.00790207 0
0.042657 -0.00613498 0
0.0423953 -0.00503918 0
0 0 0
0.0425986 -0.00563598 0
0.0422017 -0.00718676 0
0.0420371 -0.00465368 0
0.0414965 -0.00768753 0
0.0419327 -0.00745028 0
0.0420378 -0.0047217 0
0.0420385 -0.00478948 0
0.0129425 -0.00277495 0
0.0409875 -0.00800712 0
0.0420391 -0.00487247 0
0.0426488 -0.00631645 0
0.0410006 -0.00802893 0
0.0410135 -0.0080508 0
0.0420395 -0.0049552 0
0.0424431 -0.00718365 0
0.0410325 -0.00808319 0
0.0423845 -0.00560119 0
0.0425802 -0.0060937 0
0.0420399 -0.00505931 0
0.0410513 -0.00811571 0
0.0426178 -0.00684175 0
0.0410782 -0.00816313 0
0.04204 -0.00516312 0
0.0411046 -0.00821086 0
0.0420403 -0.00781325 0
0.0420399 -0.00529628 0
0.04166 -0.00807314 0
0.0411415 -0.00827939 0
0.0396358 -0.00847454 0
0.0235167 -0.0051868 0
0.0420394 -0.0054291 0
0.0389238 -0.00851222 0
0.0411775 -0.00834854 0
0.0369271 -0.00834822 0
0.0420383 -0.0056013 0
0.0412263 -0.00844639 0
0.0425507 -0.00667226 0
0.0402582 -0.00865407 0
0.0406084 -0.00862229 0
0.0420365 -0.00577309 0
0.0412732 -0.00854544 0
0.0423612 -0.00632869 0
0.0421253 -0.00818901 0
0.0420333 -0.00599656 0
0.0424867 -0.00785506 0
0.0413347 -0.00868358 0
0.0425528 -0.00770205 0
0.0378673 -0.00879058 0
0.0418336 -0.00861067 0
0.0423585 -0.00819839 0
0.042029 -0.0062195 0
0.0413926 -0.00882396 0
0.0425142 -0.00724875 0
0.0425508 -0.007737 0
0.042022 -0.00650861 0
0.0414652 -0.00901698 0
0.042201 -0.00868576 0
0.0388218 -0.00916488 0
0.0414604 -0.00599238 0
0.0423154 -0.00725659 0
0.0408426 -0.00928255 0
0.0420131 -0.00679693 0
0.0414618 -0.00614955 0
0.0408654 -0.00932713 0
0.0415313 -0.00921401 0
0.0408982 -0.00939335 0
0.0368251 -0.00898588 0
0.0414628 -0.00633667 0
0.0424586 -0.00796258 0
0.0424684 -0.00855511 0
0.0409442 -0.00949031 0
0.0419992 -0.00716779 0
0.0414629 -0.00656577 0
0.0416088 -0.0094811 0
0.0419853 -0.00935236 0
0.0410068 -0.00963039 0
0.0400936 -0.00968953 0
0.0422403 -0.00920129 0
0.0414614 -0.00685244 0
0.0419824 -0.00753731 0
0.0410885 -0.00983023 0
0.0416748 -0.00975495 0
0.0423913 -0.00867135 0
0.0414567 -0.00721621 0
0.0386847 -0.00981467 0
0.0422315 -0.00841798 0
0.0419567 -0.00800679 0
0.0411894 -0.010112 0
0.0233612 -0.00554911 0
0.0307766 -0.00789046 0
0.0423405 -0.0095672 0
0.0417432 -0.0101208 0
0.0393378 -0.0101313 0
0.0414464 -0.00768081 0
0.0423652 -0.00944815 0
0.0422392 -0.00987036 0
0.0366757 -0.00962214 0
0.0419262 -0.00847386 0
0.0413045 -0.0105051 0
0.0422932 -0.00952916 0
0.0405999 -0.0105364 0
0.0407478 -0.00740428 0
0.0406098 -0.0105591 0
0.0406196 -0.0105818 0
0.0417921 -0.0104974 0
0.0375953 -0.0100542 0
0.0407484 -0.00749473 0
0.0420576 -0.0103629 0
0.040634 -0.0106154 0
0.0414262 -0.0082738 0
0.0406482 -0.0106492 0
0.0407489 -0.00758495 0
0.0406686 -0.0106983 0
0.0407491 -0.00769003 0
0.0406885 -0.0107476 0
0.0418813 -0.00905794 0
0.040749 -0.00779484 0
0.0407163 -0.0108184 0
0.0407486 -0.00792053 0
0.0407432 -0.0108896 0
0.0384978 -0.0105095 0
0.0407479 -0.00804588 0
0.0398219 -0.0108475 0
0.0421835 -0.010565 0
0.0407794 -0.0109902 0
0.0420863 -0.00983916 0
0.0407465 -0.00819979 0
0.0414195 -0.0110478 0
0.040814 -0.0110917 0
0.0418261 -0.0109925 0
0.0413891 -0.00902565 0
0.0407446 -0.00835326 0
0.0418288 -0.00963765 0
0.0421773 -0.010377 0
0.0401255 -0.0110736 0
0 0 0
0.0408588 -0.0112329 0
0.0407414 -0.00854491 0
0.0364837 -0.0102581 0
0.0409006 -0.0113759 0
0.0407375 -0.00873594 0
0.0407313 -0.00897681 0
0.0409519 -0.0115717 0
0.0418286 -0.0115036 0
0.0417536 -0.0103491 0
0.0407239 -0.00921678 0
0.0413243 -0.00996761 0
0.0409975 -0.0117707 0
0.0415046 -0.0117886 0
0.0420433 -0.0114475 0
0.0382749 -0.0111985 0
0.0407126 -0.00952018 0
0.0420147 -0.0113779 0
0.0419612 -0.011717 0
0.0231042 -0.00595147 0
0.0410491 -0.0120393 0
0.0402188 -0.0119215 0
0.0406993 -0.00982218 0
0.0402365 -0.0119672 0
0.0416671 -0.0110528 0
0.0402618 -0.0120352 0
0.0397614 -0.00911255 0
0.0417878 -0.0121636 0
0.0418469 -0.0115335 0
0.0402971 -0.0121344 0
0.0410905 -0.0123133 0
0.0406796 -0.0102027 0
0.0397626 -0.00932132 0
0.0394618 -0.0119853 0
0.0362503 -0.0108887 0
0.0403447 -0.0122773 0
0.0397628 -0.00955851 0
0.0371742 -0.011321 0
0.0412159 -0.0111285 0
0.038769 -0.0119464 0
0.0406566 -0.0105811 0
0.040406 -0.0124803 0
0.0411292 -0.0126774 0
0.0397614 -0.00983529 0
0.0418267 -0.0123616 0
0.0415078 -0.0127871 0
0.0415466 -0.0118981 0
0.0397574 -0.0101661 0
0.0404801 -0.0127651 0
0.0379926 -0.0119327 0
0.0416991 -0.0128454 0
0.0406233 -0.0110538 0
0.0411509 -0.0130503 0
0.0302356 -0.00901703 0
0.0397489 -0.0105691 0