# vtk DataFile Version 3.0
File generated from DClib
ASCII

DATASET UNSTRUCTURED_GRID
POINTS 1909 float
50 0 0 
48.75 0 0 
50 1.66667 0 
47.5 0 0 
50 3.33333 0 
46.25 0 0 
50 5 0 
45 0 0 
43.75 0 0 
50 6.66667 0 
43 2 0 
42.5 0 0 
50 8.33333 0 
43 4.66667 0 
41.25 0 0 
41.075 2 0 
50 10 0 
40 0 0 
43 7.33333 0 
39.15 2 0 
38.75 0 0 
43 10 0 
37.5 0 0 
37.225 2 0 
36.25 0 0 
36 4 0 
35.3 2 0 
36 5 0 
35 0 0 
35.325 4 0 
36 6 0 
36 7 0 
34.65 4 0 
36 8 0 
33.75 0 0 
33.975 4 0 
36 9 0 
33.375 2 0 
33.3 4 0 
36 10 0 
32.5 0 0 
32.625 4 0 
33 6 0 
31.95 4 0 
33 7.45455 0 
31.45 2 0 
31.25 0 0 
31.95 6 0 
33 8.79545 0 
31.275 4 0 
33 10 0 
30.6 4 0 
30 0 0 
30.9 6 0 
29.925 4 0 
29.525 2 0 
29.85 6 0 
29.25 4 0 
28.75 0 0 
30 8 0 
30 8.45455 0 
28.575 4 0 
29.625 8 0 
30 8.90909 0 
28.8 6 0 
30 9.25 0 
29.782 8.90909 0 
30 9.59091 0 
29.9487 9.59091 0 
29.25 8 0 
29.7462 9.25 0 
30 9.79545 0 
29.897 9.59091 0 
29.564 8.90909 0 
29.9547 9.79545 0 
29.3462 8.45455 0 
29.84 9.59091 0 
30 10 0 
29.8975 9.79545 0 
29.9882 10 0 
29.9902 10.0098 0 
29.7827 9.59091 0 
29.9765 10 0 
29.9804 10.0196 0 
29.9667 10.0098 0 
29.9591 10 0 
29.9686 10.0196 0 
29.9659 10.0341 0 
29.9569 10.0196 0 
29.9418 10 0 
29.9395 10.0196 0 
29.9515 10.0485 0 
29.932 10.0098 0 
29.9424 10.0341 0 
29.8241 9.79545 0 
29.7181 9.59091 0 
29.9166 10 0 
29.9397 10.0485 0 
29.9222 10.0196 0 
29.9279 10.0485 0 
29.9305 10.0695 0 
29.8914 10 0 
29.9077 10.0341 0 
27.9 4 0 
29.897 10.0196 0 
29.9106 10.0485 0 
29.8817 10.0098 0 
29.907 10.0695 0 
29.8933 10.0485 0 
29.9095 10.0905 0 
29.8719 10.0196 0 
27.6 2 0 
29.8556 10 0 
29.8978 10.0905 0 
29.6531 9.59091 0 
29.3437 8.90909 0 
27.5 0 0 
29.8681 10.0485 0 
29.886 10.0905 0 
29.8574 10.0341 0 
29.4839 9.25 0 
29.8723 10.0695 0 
29.7289 9.79545 0 
29.836 10.0196 0 
29.8687 10.0905 0 
29.8197 10 0 
29.8797 10.1203 0 
29.843 10.0485 0 
29.8513 10.0905 0 
29.81 10.0098 0 
29.8561 10.1203 0 
29.8002 10.0196 0 
29.8221 10.0695 0 
29.8072 10.0485 0 
29.8262 10.0905 0 
29.5782 9.59091 0 
29.8498 10.1502 0 
29.7695 10 0 
29.7858 10.0341 0 
29.838 10.1502 0 
29.8215 10.1203 0 
29.8011 10.0905 0 
29.8262 10.1502 0 
29.7714 10.0485 0 
28.875 8 0 
29.75 10.0196 0 
29.8089 10.1502 0 
29.7654 10.0905 0 
29.7193 10 0 
29.7916 10.1502 0 
29.7505 10.0695 0 
29.8079 10.1921 0 
29.7713 10.1203 0 
29.7096 10.0098 0 
29.6047 9.79545 0 
29.503 9.59091 0 
29.7213 10.0485 0 
29.7665 10.1502 0 
29.6999 10.0196 0 
29.7844 10.1921 0 
29.7296 10.0905 0 
29.6856 10.0341 0 
29.7414 10.1502 0 
29.7497 10.1921 0 
29.6503 10 0 
29.7661 10.2339 0 
29.6712 10.0485 0 
29.6999 10.1203 0 
29.7543 10.2339 0 
29.6796 10.0905 0 
29.7057 10.1502 0 
29.7425 10.2339 0 
29.1235 8.90909 0 
29.6309 10.0196 0 
29.6504 10.0695 0 
29.4146 9.59091 0 
29.7252 10.2339 0 
29.6996 10.1921 0 
29.6701 10.1502 0 
29.7079 10.2339 0 
29.6296 10.0905 0 
29.5813 10 0 
29.6023 10.0485 0 
29.5716 10.0098 0 
29.6828 10.2339 0 
29.7086 10.2914 0 
29.2101 9.25 0 
29.562 10.0196 0 
29.6201 10.1502 0 
29.6578 10.2339 0 
29.4428 9.79545 0 
29.5999 10.1203 0 
29.6849 10.2914 0 
29.6283 10.1921 0 
29.5477 10.0341 0 
29.3259 9.59091 0 
29.5608 10.0905 0 
29.5335 10.0485 0 
29.6221 10.2339 0 
29.6503 10.2914 0 
29.5702 10.1502 0 
29.4881 10 0 
29.5128 10.0695 0 
29.6511 10.3489 0 
29.5866 10.2339 0 
29.6392 10.3489 0 
29.4689 10.0196 0 
29.6002 10.2914 0 
29.6273 10.3489 0 
29.4921 10.0905 0 
29.61 10.3489 0 
29.5286 10.1921 0 
29.5016 10.1502 0 
29.5368 10.2339 0 
29.5926 10.3489 0 
29.4405 10.0485 0 
29.2199 9.59091 0 
29.4626 10.1203 0 
29.3949 10 0 
28.9 8.90909 0 
29.5676 10.3489 0 
29.5291 10.2914 0 
29.3853 10.0098 0 
28.6923 8.45455 0 
29.487 10.2339 0 
29.5426 10.3489 0 
29.3758 10.0196 0 
29.5734 10.4266 0 
29.4331 10.1502 0 
29.3993 10.0905 0 
28.5 8 0 
29.3617 10.0341 0 
29.5496 10.4266 0 
29.5071 10.3489 0 
29.2327 9.79545 0 
29.3475 10.0485 0 
29.1136 9.59091 0 
29.4187 10.2339 0 
29.5148 10.4266 0 
29.4716 10.3489 0 
29.3918 10.1921 0 
29.3271 10.0695 0 
29.4298 10.2914 0 
29.2714 10 0 
29.3406 10.1502 0 
28.9208 9.25 0 
29.3066 10.0905 0 
29.4648 10.4266 0 
29.422 10.3489 0 
29.4958 10.5042 0 
29.2524 10.0196 0 
27.75 6 0 
29.3504 10.2339 0 
29.4837 10.5042 0 
29.4718 10.5042 0 
29.2774 10.1203 0 
29.4543 10.5042 0 
29.3724 10.3489 0 
29.2244 10.0485 0 
29.4369 10.5042 0 
29.3938 10.4266 0 
28.9853 9.59091 0 
29.2481 10.1502 0 
28.6766 8.90909 0 
29.4119 10.5042 0 
29.2934 10.2914 0 
27.225 4 0 
29.148 10 0 
29.2582 10.2339 0 
29.1837 10.0905 0 
29.3869 10.5042 0 
29.1385 10.0098 0 
29.3044 10.3489 0 
29.1291 10.0196 0 
29.2072 10.1921 0 
29.3514 10.5042 0 
29.1152 10.0341 0 
29.3929 10.6071 0 
29.2949 10.4266 0 
29.1013 10.0485 0 
29.3686 10.6071 0 
29.316 10.5042 0 
29.2364 10.3489 0 
28.9623 9.79545 0 
29.1257 10.1502 0 
29.1662 10.2339 0 
29.0811 10.0695 0 
28.8566 9.59091 0 
29.3336 10.6071 0 
29.2666 10.5042 0 
29.0609 10.0905 0 
28.9875 10 0 
29.2835 10.6071 0 
29.1448 10.3489 0 
29.0321 10.1203 0 
29.2173 10.5042 0 
29.1098 10.2914 0 
28.125 8 0 
28.9688 10.0196 0 
29.1594 10.4266 0 
28.611 9.25 0 
29.29 10.71 0 
28.4486 8.90909 0 
29.0443 10.2339 0 
29.0033 10.1502 0 
29.2777 10.71 0 
28.9413 10.0485 0 
29.2128 10.6071 0 
29.2655 10.71 0 
29.1497 10.5042 0 
29.2478 10.71 0 
28.7003 9.59091 0 
29.0533 10.3489 0 
29.2303 10.71 0 
28.9629 10.1921 0 
28.9013 10.0905 0 
29.2051 10.71 0 
29.0822 10.5042 0 
29.1801 10.71 0 
28.827 10 0 
29.1144 10.6071 0 
28.8177 10.0098 0 
28.9225 10.2339 0 
28.8085 10.0196 0 
29.1447 10.71 0 
28.7949 10.0341 0 
28.8443 10.1502 0 
28.977 10.4266 0 
28.9322 10.3489 0 
29.1094 10.71 0 
28.7813 10.0485 0 
28.9912 10.5042 0 
29.1562 10.8438 0 
28.5436 9.59091 0 
28.7615 10.0695 0 
28.8669 10.2914 0 
29.1313 10.8438 0 
28.6184 9.79545 0 
29.0602 10.71 0 
28.2207 8.90909 0 
28.7418 10.0905 0 
28.0378 8.45455 0 
28.9798 10.6071 0 
29.0958 10.8438 0 
29.0112 10.71 0 
28.9005 10.5042 0 
28.7136 10.1203 0 
28.7644 10.2339 0 
28.8113 10.3489 0 
29.0454 10.8438 0 
28.6223 10 0 
28.6854 10.1502 0 
28.2746 9.25 0 
28.9441 10.71 0 
28.6042 10.0196 0 
27.75 8 0 
28.9747 10.8438 0 
28.6459 10.1921 0 
28.5773 10.0485 0 
29.0225 10.9775 0 
28.3532 9.59091 0 
28.7804 10.5042 0 
28.736 10.4266 0 
28.8772 10.71 0 
29.0097 10.9775 0 
28.9971 10.9775 0 
28.799 10.6071 0 
28.9791 10.9775 0 
28.5384 10.0905 0 
28.6064 10.2339 0 
28.6543 10.3489 0 
28.9611 10.9775 0 
28.8769 10.8438 0 
27.9867 8.90909 0 
26.25 0 0 
28.9358 10.9775 0 
28.7871 10.71 0 
28.9106 10.9775 0 
28.6607 10.5042 0 
28.4177 10 0 
26.55 4 0 
28.552 10.2914 0 
28.483 10.1502 0 
28.4087 10.0098 0 
28.8751 10.9775 0 
28.3998 10.0196 0 
28.3866 10.0341 0 
28.8399 10.9775 0 
28.6974 10.71 0 
28.3735 10.0485 0 
28.1625 9.59091 0 
28.7436 10.8438 0 
28.4976 10.3489 0 
28.3543 10.0695 0 
28.791 10.9775 0 
28.4052 10.2339 0 
28.3352 10.0905 0 
28.8519 11.1481 0 
28.1869 9.79545 0 
28.5607 10.6071 0 
28.5053 10.5042 0 
28.7423 10.9775 0 
28.8258 11.1481 0 
28.308 10.1203 0 
28.5787 10.71 0 
27.904 9.25 0 
28.7893 11.1481 0 
28.424 10.4266 0 
27.7528 8.90909 0 
28.2807 10.1502 0 
28.6758 10.9775 0 
27.375 8 0 
28.7383 11.1481 0 
28.1619 10 0 
28.5649 10.8438 0 
28.2425 10.1921 0 
28.6096 10.9775 0 
28.1444 10.0196 0 
28.298 10.3489 0 
28.4605 10.71 0 
26.7 6 0 
27.9315 9.59091 0 
28.3503 10.5042 0 
28.6676 11.1481 0 
28.1187 10.0485 0 
28.2042 10.2339 0 
28.5207 10.9775 0 
28.0813 10.0905 0 
28.6814 11.3186 0 
27.3818 8.45455 0 
28.6679 11.3186 0 
28.1516 10.2914 0 
28.5703 11.1481 0 
28.6544 11.3186 0 
28.6358 11.3186 0 
27.5109 8.90909 0 
28.3072 10.71 0 
28.6173 11.3186 0 
28.2524 10.6071 0 
28.4322 10.9775 0 
28.028 10.1502 0 
28.5915 11.3186 0 
28.0989 10.3489 0 
28.33 10.8438 0 
28.5658 11.3186 0 
28.153 10.5042 0 
27.9061 10 0 
27.8975 10.0098 0 
28.5303 11.3186 0 
28.4384 11.1481 0 
27.7002 9.59091 0 
27.889 10.0196 0 
27.8765 10.0341 0 
28.4949 11.3186 0 
28.3154 10.9775 0 
27.9532 10.2339 0 
27.8639 10.0485 0 
28.0276 10.4266 0 
28.1544 10.71 0 
27.8457 10.0695 0 
27.4909 9.25 0 
28.4463 11.3186 0 
27 8 0 
27.8275 10.0905 0 
28.3979 11.3186 0 
27.8015 10.1203 0 
27.6542 9.79545 0 
25.675 2 0 
28.1991 10.9775 0 
27.2691 8.90909 0 
27.9563 10.5042 0 
28.4682 11.5318 0 
28.2625 11.1481 0 
27.7755 10.1502 0 
28.3322 11.3186 0 
27.8502 10.3489 0 
28.4401 11.5318 0 
25.875 4 0 
27.7391 10.1921 0 
28.4019 11.5318 0 
28.0268 10.8438 0 
28.2668 11.3186 0 
27.9602 10.71 0 
28.3498 11.5318 0 
27.4223 9.59091 0 
27.7026 10.2339 0 
27.5927 10 0 
28.0486 10.9775 0 
27.8616 10.6071 0 
27.5762 10.0196 0 
28.1794 11.3186 0 
28.2786 11.5318 0 
27.5519 10.0485 0 
27.6524 10.2914 0 
28.0319 11.1481 0 
27.7108 10.5042 0 
27.5167 10.0905 0 
27.0169 8.90909 0 
28.0924 11.3186 0 
27.6021 10.3489 0 
27.8988 10.9775 0 
28.1818 11.5318 0 
27.7667 10.71 0 
26.625 8 0 
28.255 11.745 0 
27.4664 10.1502 0 
28.2402 11.745 0 
28.2256 11.745 0 
28.2059 11.745 0 
27.978 11.3186 0 
26.7234 8.45455 0 
27.0259 9.25 0 
27.5342 10.4266 0 
28.1863 11.745 0 
27.1442 9.59091 0 
28.0516 11.5318 0 
28.1598 11.745 0 
27.3959 10.2339 0 
28.1334 11.745 0 
27.2793 10 0 
27.2714 10.0098 0 
27.2635 10.0196 0 
27.7086 10.9775 0 
27.6431 10.8438 0 
28.0975 11.745 0 
27.8643 11.3186 0 
27.4661 10.5042 0 
27.2518 10.0341 0 
27.2401 10.0485 0 
28.0617 11.745 0 
26.7648 8.90909 0 
27.5255 10.71 0 
27.7353 11.1481 0 
27.2231 10.0695 0 
28.0133 11.745 0 
27.2061 10.0905 0 
27.8791 11.5318 0 
27.2986 10.3489 0 
27.1818 10.1203 0 
27.9651 11.745 0 
27.3758 10.6071 0 
27.0077 9.79545 0 
27.7174 11.3186 0 
27.1576 10.1502 0 
25 0 0 
27.5193 10.9775 0 
27.9003 11.745 0 
27.1236 10.1921 0 
26.25 8 0 
27.9939 12.0061 0 
25.65 6 0 
27.8359 11.745 0 
26.8136 9.59091 0 
27.0896 10.2339 0 
27.9626 12.0061 0 
27.2853 10.71 0 
25.2 4 0 
27.5713 11.3186 0 
27.9218 12.0061 0 
26.4998 8.90909 0 
27.167 10.5042 0 
27.6541 11.5318 0 
27.0427 10.2914 0 
27.7503 11.745 0 
26.9033 10 0 
27.8677 12.0061 0 
26.8882 10.0196 0 
26.8659 10.0485 0 
26.9958 10.3489 0 
27.2836 10.9775 0 
27.6652 11.745 0 
27.3609 11.1481 0 
27.7955 12.0061 0 
26.499 9.25 0 
[...]
POINT_DATA 1909
SCALARS phi float 1
LOOKUP_TABLE default
VECTORS Displacement float
0 0 0
0 0 0
0 -0.00598172 0
0 0 0
0 -0.0082694 0
0 0 0
0 -0.00716498 0
0 0 0
0 0 0
0 -0.00301133 0
0.0169676 -0.00518251 0
0 0 0
0 0.0039316 0
0.0329026 -0.00308375 0
0 0 0
0.023033 -0.0050737 0
0 0.012834 0
0 0 0
0.0436688 0.00729263 0
0.0297023 -0.00514596 0
0 0 0
0.0494074 0.0237812 0
0 0 0
0.0368369 -0.005525 0
0 0 0
0.069797 -0.00339724 0
0.0440433 -0.00621599 0
0.0822197 0.00085119 0
0 0 0
0.0748821 -0.00375125 0
0.0911112 0.00656629 0
0.0968422 0.013396 0
0.0798813 -0.00419498 0
0.10029 0.0205939 0
0 0 0
0.0848561 -0.00490579 0
0.10301 0.0281571 0
0.0508627 -0.00717577 0
0.0896941 -0.00572127 0
0.10558 0.0371168 0
0 0 0
0.0943024 -0.00670822 0
0.120482 0.00349182 0
0.0986819 -0.00779586 0
0.131967 0.0157636 0
0.0568657 -0.00834913 0
0 0 0
0.130651 -0.000496965 0
0.136916 0.0324821 0
0.10274 -0.00900775 0
0.137909 0.0564103 0
0.106476 -0.0103098 0
0 0 0
0.13925 -0.00467022 0
0.109846 -0.0117031 0
0.0616955 -0.0096908 0
0.146516 -0.00921143 0
0.112824 -0.0131802 0
0 0 0
0.171461 0.00174227 0
0.176421 0.00563638 0
0.115419 -0.0147212 0
0.175036 -0.00133774 0
0.18128 0.0105779 0
0.152413 -0.0140996 0
0.18495 0.0176042 0
0.183881 0.00752082 0
0.188748 0.0276081 0
0.189546 0.0252549 0
0.178189 -0.00449867 0
0.188397 0.0122385 0
0.189675 0.0345113 0
0.190317 0.0232864 0
0.186222 0.00479309 0
0.190446 0.032136 0
0.183049 -0.000876151 0
0.191075 0.0213031 0
0.18998 0.042377 0
0.191465 0.0293749 0
0.190332 0.0425174 0
0.279981 0.0748734 0
0.191779 0.019551 0
0.190733 0.0424784 0
0.347206 0.098059 0
0.278185 0.0738328 0
0.191356 0.04237 0
0.345377 0.097008 0
0.350964 0.0976153 0
0.343272 0.09573 0
0.192033 0.0421181 0
0.339675 0.0939272 0
0.35105 0.0965473 0
0.274956 0.0717083 0
0.349295 0.0954846 0
0.192843 0.0263776 0
0.192493 0.017775 0
0.193035 0.0414235 0
0.350894 0.0956124 0
0.335985 0.091953 0
0.350763 0.0947589 0
0.351372 0.0953466 0
0.194071 0.0406785 0
0.345444 0.0925764 0
0.117576 -0.01635 0
0.330728 0.0890049 0
0.35034 0.0936767 0
0.270491 0.0678643 0
0.351157 0.0937646 0
0.349759 0.092497 0
0.350786 0.09404 0
0.325623 0.0860395 0
0.0650646 -0.0111728 0
0.195485 0.0391665 0
0.350726 0.0932704 0
0.193146 0.0161425 0
0.188503 0.00225877 0
0 0 0
0.348486 0.0906623 0
0.350646 0.0924836 0
0.338898 0.087919 0
0.191477 0.00810233 0
0.350703 0.0913778 0
0.194651 0.0231799 0
0.31894 0.0816397 0
0.350503 0.0912563 0
0.196871 0.0377168 0
0.35003 0.0922474 0
0.346686 0.0886274 0
0.350347 0.089977 0
0.264847 0.061822 0
0.349888 0.0905671 0
0.312484 0.0774003 0
0.349283 0.0874702 0
0.343642 0.0854086 0
0.35006 0.0880463 0
0.193843 0.014428 0
0.349054 0.0902682 0
0.198628 0.0354085 0
0.329094 0.0805196 0
0.348973 0.0893874 0
0.349642 0.0879388 0
0.34973 0.0860685 0
0.34889 0.0884866 0
0.340017 0.0820857 0
0.1812 -0.00767742 0
0.304168 0.0715064 0
0.348757 0.087138 0
0.349 0.0832479 0
0.200241 0.033251 0
0.348617 0.0857729 0
0.345522 0.0814585 0
0.347668 0.0873494 0
0.349219 0.0839901 0
0.257656 0.0535322 0
0.196875 0.0197531 0
0.194488 0.0128015 0
0.334543 0.0772681 0
0.348404 0.0837781 0
0.296246 0.065989 0
0.347508 0.0854882 0
0.347967 0.0804038 0
0.31523 0.0701444 0
0.348184 0.0817933 0
0.347256 0.0827265 0
0.202169 0.0303894 0
0.346264 0.084322 0
0.328614 0.0725352 0
0.348313 0.0783916 0
0.346172 0.0833694 0
0.345937 0.0764669 0
0.347864 0.0789953 0
0.346079 0.0824217 0
0.190606 -0.000228237 0
0.286189 0.0588693 0
0.337808 0.07292 0
0.195234 0.011056 0
0.345941 0.0810344 0
0.346867 0.0787815 0
0.347549 0.0762798 0
0.345804 0.0796627 0
0.343244 0.072558 0
0.203809 0.0277075 0
0.320197 0.0661857 0
0.24851 0.0434024 0
0.345608 0.0777052 0
0.344376 0.0801208 0
0.194285 0.00422352 0
0.276867 0.0523455 0
0.346982 0.0726287 0
0.345415 0.0757913 0
0.199432 0.0160435 0
0.345794 0.0709435 0
0.344204 0.0782466 0
0.346313 0.073428 0
0.296706 0.0570994 0
0.195958 0.00937978 0
0.338642 0.0673579 0
0.311551 0.0601055 0
0.345141 0.0731445 0
0.34395 0.0755605 0
0.346273 0.0691453 0
0.205676 0.0245769 0
0.324424 0.0616916 0
0.342537 0.0760003 0
0.344873 0.0705954 0
0.342449 0.0750798 0
0.265465 0.04454 0
0.343583 0.0718338 0
0.342362 0.0741732 0
0.333225 0.0622581 0
0.342235 0.0728633 0
0.345504 0.0665463 0
0.344733 0.0646368 0
0.34451 0.0671758 0
0.34211 0.0715811 0
0.299797 0.0524757 0
0.196837 0.00752957 0
0.339404 0.0614998 0
0.207156 0.0216112 0
0.192619 -0.00271009 0
0.341932 0.0697687 0
0.343078 0.0668613 0
0.237564 0.0321783 0
0.188431 -0.00723294 0
0.34417 0.0639442 0
0.341758 0.0680095 0
0.255534 0.037624 0
0.340238 0.0706661 0
0.342557 0.0602905 0
0.324836 0.0557344 0
0.18384 -0.0109623 0
0.273653 0.0421799 0
0.340078 0.0689318 0
0.341517 0.0655876 0
0.20217 0.0119044 0
0.288186 0.0452938 0
0.197742 0.0057596 0
0.343659 0.0597405 0
0.339847 0.0664843 0
0.341285 0.0632613 0
0.343572 0.0580807 0
0.303714 0.0478716 0
0.342422 0.0605165 0
0.208781 0.0183201 0
0.338401 0.0547927 0
0.196918 0.000330173 0
0.315562 0.0493544 0
0.33952 0.0631217 0
0.340967 0.0601514 0
0.337973 0.0655971 0
0.244395 0.0298939 0
0.156869 -0.019265 0
0.343082 0.0558124 0
0.3379 0.0647691 0
0.337829 0.0639557 0
0.326169 0.0497475 0
0.337726 0.0627878 0
0.340661 0.0571921 0
0.273503 0.0367817 0
0.337624 0.0616459 0
0.33907 0.0586502 0
0.198836 0.00373247 0
0.333121 0.0494036 0
0.194487 -0.00519914 0
0.337478 0.0600383 0
0.341608 0.0527306 0
0.119334 -0.0180128 0
0.210026 0.0151773 0
0.341767 0.0508579 0
0.302257 0.0415029 0
0.337334 0.0584764 0
0.226473 0.0207789 0
0.340258 0.0533317 0
0.23584 0.0234531 0
0.337793 0.0479193 0
0.337131 0.0563249 0
0.248748 0.0267183 0
0.335263 0.0593422 0
0.338474 0.0529004 0
0.26021 0.0291844 0
0.33513 0.0578042 0
0.336931 0.0542491 0
0.339878 0.0496958 0
0.204881 0.00704649 0
0.324306 0.0427141 0
0.339781 0.046143 0
0.2754 0.0320147 0
0.199958 0.0017762 0
0.334937 0.0556489 0
0.336653 0.0514569 0
0.288375 0.0339644 0
0.211336 0.0115974 0
0.334665 0.0526882 0
0.339364 0.0450538 0
0.302774 0.0354384 0
0.336381 0.0487831 0
0.339892 0.0434316 0
0.186245 -0.0142337 0
0.227555 0.0165783 0
0.337715 0.0457554 0
0.199378 -0.00375952 0
0.332568 0.0534659 0
0.196203 -0.00776767 0
0.335671 0.0403451 0
0.313855 0.0360741 0
0.332513 0.0527368 0
0.245731 0.0207153 0
0.334287 0.0487254 0
0.332458 0.0520196 0
0.336012 0.0452805 0
0.332379 0.050997 0
0.201297 -0.000515775 0
0.338808 0.0407397 0
0.3323 0.0499944 0
0.323793 0.0356788 0
0.270912 0.0251737 0
0.332186 0.0485862 0
0.335653 0.0419546 0
0.332072 0.0472119 0
0.212362 0.00817925 0
0.333772 0.043581 0
0.21834 0.010096 0
0.330101 0.0347192 0
0.222422 0.0111781 0
0.331909 0.0453172 0
0.228575 0.0126412 0
0.298426 0.0281901 0
0.336819 0.0371953 0
0.337525 0.0354231 0
0.331746 0.0434802 0
0.235055 0.0140169 0
0.335189 0.0377179 0
0.32933 0.0463767 0
0.202619 -0.00275606 0
0.245327 0.0160067 0
0.33411 0.0326829 0
0.329227 0.0450108 0
0.207388 0.0011649 0
0.331516 0.041004 0
0.197787 -0.0103311 0
0.255443 0.0176322 0
0.192716 -0.0137204 0
0.333091 0.0371327 0
0.329079 0.043113 0
0.331287 0.038624 0
0.334759 0.0337495 0
0.269406 0.0194782 0
0.320232 0.028044 0
0.335511 0.0304665 0
0.32887 0.0405136 0
0.213372 0.00413245 0
0.281957 0.0206661 0
0.201694 -0.00813287 0
0.330973 0.035499 0
0.218487 0.00546176 0
0.18827 -0.0175656 0
0.328577 0.0370347 0
0.29644 0.0213702 0
0.226071 0.00692699 0
0.326187 0.0397257 0
0.204152 -0.0054167 0
0.334219 0.0288385 0
0.335095 0.0273569 0
0.330665 0.0325305 0
0.326143 0.0390731 0
0.326099 0.0384313 0
0.332244 0.0293819 0
0.326036 0.0375291 0
0.240117 0.00921389 0
0.307857 0.0213939 0
0.331125 0.0246192 0
0.325974 0.0366443 0
0.328178 0.0325177 0
0.199226 -0.0129762 0
0 0 0
0.325884 0.0354132 0
0.330261 0.0287533 0
0.325794 0.0342118 0
0.333648 0.0243534 0
0.214194 0.000259645 0
0.120628 -0.0197824 0
0.318295 0.0204304 0
0.262507 0.0120109 0
0.215506 0.000552337 0
0.325668 0.0325657 0
0.216793 0.000802375 0
0.218751 0.00114669 0
0.325542 0.0309712 0
0.32988 0.0252188 0
0.221092 0.0015579 0
0.205597 -0.00804392 0
0.327654 0.0268703 0
0.324899 0.0190615 0
0.225222 0.00226028 0
0.32537 0.0288321 0
0.289969 0.0138429 0
0.23008 0.00303235 0
0.322422 0.0318663 0
0.209672 -0.00588983 0
0.331342 0.0205346 0
0.332336 0.0190457 0
0.325201 0.0267809 0
0.322349 0.0306463 0
0.238082 0.004171 0
0.329429 0.0208845 0
0.203909 -0.0128327 0
0.322246 0.0289891 0
0.328989 0.0166868 0
0.200517 -0.0156182 0
0.24674 0.00516721 0
0.324977 0.0241005 0
0.190022 -0.0208881 0
0.322103 0.0267559 0
0.21489 -0.00436349 0
0.327012 0.0201208 0
0.25938 0.0062841 0
0.324765 0.0215632 0
0.21618 -0.00425984 0
0.31347 0.0128344 0
0.329055 0.0168997 0
0.159829 -0.0246512 0
0.207203 -0.0111785 0
0.33028 0.0142291 0
0.321908 0.0238034 0
0.218453 -0.00410272 0
0.271532 0.0068812 0
0.324495 0.0183441 0
0.22325 -0.00368536 0
0.318721 0.0245831 0
0.195947 -0.0202787 0
0.318692 0.0240084 0
0.286374 0.00697799 0
0.321649 0.0200082 0
0.318663 0.0234447 0
0.318624 0.0226705 0
0.201661 -0.0183522 0
0.328574 0.0121247 0
0.318586 0.0219134 0
0.329643 0.0109267 0
0.324251 0.0153375 0
0.233377 -0.00281217 0
0.318533 0.0208777 0
0.298663 0.00646436 0
0.326287 0.0124137 0
0.318482 0.0198699 0
0.325503 0.00864969 0
0.215488 -0.00879345 0
0.215846 -0.00883006 0
0.318412 0.0185063 0
0.321323 0.0152923 0
0.208641 -0.0142893 0
0.216208 -0.00886845 0
0.2168 -0.00891157 0
0.318344 0.0171883 0
0.323951 0.0116183 0
0.252093 -0.00157583 0
0.217442 -0.00894838 0
0.31042 0.00495744 0
0.328001 0.00772517 0
0.218597 -0.00895302 0
0.205998 -0.0179388 0
0.318254 0.0154337 0
0.191406 -0.0242288 0
0.219968 -0.00892422 0
0.31817 0.0137512 0
0.222488 -0.00879273 0
0.211944 -0.0140482 0
0.0667287 -0.0127736 0
0.323669 0.00812763 0
0.202652 -0.0210738 0
0.318095 0.00314726 0
0.314613 0.0164002 0
0.320932 0.00962282 0
0.225685 -0.00857341 0
0.318059 0.0115552 0
0.278761 -0.000993201 0
0.314572 0.0153374 0
0.121507 -0.0215471 0
0.231307 -0.00818698 0
0.314516 0.0139392 0
0.325475 0.00367008 0
0.317956 0.00946117 0
0.326637 0.00241002 0
0.31444 0.0120958 0
0.210116 -0.0179958 0
0.238063 -0.00780004 0
0.216024 -0.0139467 0
0.323334 0.00383207 0
0.322902 0.000299326 0
0.216541 -0.0140919 0
0.317824 0.00677778 0
0.314339 0.00968602 0
0.217352 -0.0143062 0
0.248616 -0.0074268 0
0.320458 0.00287623 0
0.304571 -0.00298768 0
0.218752 -0.0145983 0
0.203525 -0.0238903 0
0.317691 0.00420279 0
0.259722 -0.00744747 0
0.32295 -0.000286662 0
0.314208 0.00658465 0
0.324394 -0.00259385 0
0.192513 -0.0275838 0
0.310371 0.00888844 0
0.221596 -0.0149366 0
0.310363 0.00839142 0
0.310355 0.00790317 0
0.310346 0.00725352 0
0.317519 0.000933073 0
0.198135 -0.0268768 0
0.207821 -0.0235898 0
0.274222 -0.00807176 0
0.310338 0.00661633 0
0.211346 -0.0216764 0
0.31404 0.00265558 0
0.310327 0.00576203 0
0.228113 -0.0152441 0
0.310316 0.00492584 0
0.216526 -0.0189089 0
0.21672 -0.0189995 0
0.216926 -0.0190874 0
0.322337 -0.005345 0
0.323545 -0.00640941 0
0.310299 0.00380667 0
0.317322 -0.00224437 0
0.287098 -0.0093223 0
0.217219 -0.019223 0
0.217519 -0.0193586 0
0.310283 0.00271295 0
0.204233 -0.0266946 0
0.318679 -0.00839337 0
0.319773 -0.00525152 0
0.217974 -0.019551 0
0.310259 0.00125948 0
0.218431 -0.0197477 0
0.313817 -0.00229477 0
0.242072 -0.0156252 0
0.21916 -0.0200103 0
0.310234 -0.000162231 0
0.300208 -0.0116779 0
0.214285 -0.0232625 0
0.317032 -0.00625307 0
0.219945 -0.0202719 0
0 0 0
0.321601 -0.0101788 0
0.310198 -0.00203694 0
0.221381 -0.0205781 0
0.19328 -0.0309382 0
0.305704 0.00061128 0
0.161272 -0.030216 0
0.310154 -0.0038778 0
0.212442 -0.0260157 0
0.223179 -0.0208497 0
0.305694 -0.000355991 0
0.309235 -0.0142599 0
0.121905 -0.0234508 0
0.316699 -0.0101484 0
0.305678 -0.00159415 0
0.204823 -0.0296228 0
0.265682 -0.0167855 0
0.313474 -0.0085125 0
0.226576 -0.0211442 0
0.310076 -0.00628263 0
0.21734 -0.0244853 0
0.305656 -0.0032032 0
0.217582 -0.0247023 0
0.218008 -0.0250056 0
0.231056 -0.0214012 0
0.319861 -0.0160254 0
0.309984 -0.00864753 0
0.318644 -0.0149316 0
0.305626 -0.0053087 0
0.209186 -0.0299142 0
0.218672 -0.025443 0
0.315158 -0.0179431 0
0.316206 -0.014953 0
0.238639 -0.0218515 0
0.305577 -0.00806683 0
0.309842 -0.0116993 0
0.219675 -0.0260815 0
0.292747 -0.020321 0
0.205237 -0.032542 0
0.199361 -0.0334724 0
0.213206 -0.0303157 0
0.312893 -0.0161836 0
0.24762 -0.022568 0
0.193781 -0.0342997 0
0.300926 -0.00726961 0
0.221342 -0.0270024 0
0.309677 -0.0146887 0
0.30093 -0.00775644 0
0.305491 -0.0116624 0
0.317079 -0.0215147 0
0.300933 -0.00823801 0
0.315641 -0.0195947 0
0.300937 -0.00885384 0
0.30094 -0.00946345 0
0.300942 -0.0102589 0
0.217907 -0.0299213 0
0.260328 -0.0240496 0
0.218044 -0.03003 0
0.218179 -0.0301394 0
0.300943 -0.0110467 0
0.218368 -0.0303029 0
0.224922 -0.0282914 0
0.309427 -0.0184684 0
0.218555 -0.0304675 0
0.30094 -0.0120851 0
0.218819 -0.030709 0
0.305337 -0.0162978 0
0.300934 -0.0131137 0
0.219082 -0.030953 0
0.21945 -0.0313047 0
0.205506 -0.035619 0
0.272804 -0.0262097 0
0.300921 -0.0144724 0
0.316082 -0.0260522 0
0.314779 -0.0251971 0
0.219817 -0.0316606 0
0.309137 -0.0221502 0
0.300903 -0.0158173 0
0.30962 -0.0274176 0
0.215889 -0.0337357 0
0.22033 -0.0321635 0
0.311897 -0.0253781 0
0.233581 -0.0301723 0
0.300872 -0.0175867 0
0.213731 -0.0352875 0
0.220834 -0.0326759 0
0.193978 -0.0376538 0
0.305055 -0.0221545 0
0.121869 -0.0252919 0
0.300834 -0.0193339 0
0.28662 -0.0296685 0
0.209862 -0.0370118 0
0.221627 -0.0333614 0
0.308709 -0.0266981 0
0.295339 -0.0163463 0
0.313761 -0.0305497 0
0.300771 -0.0216093 0
0.295344 -0.0173694 0
0.222505 -0.0340479 0
0.205591 -0.0386856 0
0.295347 -0.0186365 0
0.218384 -0.0360933 0
0.218593 -0.0363149 0
0.300696 -0.0238477 0
0.296994 -0.0333578 0
0.25144 -0.0333062 0
0.295345 -0.0202437 0
0.218907 -0.0366446 0
0.224243 -0.0348946 0
0.308215 -0.0311085 0
0.219362 -0.0371291 0
0.19967 -0.040076 0
0.304555 -0.0293775 0
0.295335 -0.0223111 0
0.300577 -0.0267186 0
0.226502 -0.0357441 0
0.22 -0.0378329 0
0.161202 -0.0359319 0
0.311382 -0.0368389 0
0.213839 -0.0402098 0
0.295305 -0.0249829 0
0.310283 -0.0360971 0
0.193925 -0.0410144 0
0.300435 -0.0295324 0
0.3046 -0.0381958 0
0.220865 -0.0388472 0
0.230849 -0.0369004 0
0.205498 -0.0419392 0
0.307507 -0.0364224 0
0.295239 -0.0284225 0
0 0 0
0.300219 -0.0330761 0
0.277148 -0.03883 0
0.289658 -0.0252796 0
0.222055 -0.0402879 0
0.236639 -0.0382496 0
0.289661 -0.025826 0
0.289664 -0.0263686 0
0.066476 -0.014447 0
0.21828 -0.0422185 0
0.289667 -0.027031 0
0.303697 -0.0380564 0
0.218387 -0.0423363 0
0.218495 -0.0424546 0
0.289669 -0.0276886 0
0.30751 -0.0426245 0
0.218647 -0.0426298 0
0.295106 -0.0328039 0
0.299965 -0.0365353 0
0.28967 -0.0285122 0
0.218797 -0.0428059 0
0.306701 -0.0415383 0
0.219009 -0.0430633 0
0.28967 -0.0293292 0
0.219219 -0.0433225 0
0.245858 -0.0404949 0
0.289666 -0.0303708 0
0.223991 -0.0423358 0
0.21951 -0.043696 0
0.209605 -0.0449405 0
0.121331 -0.0273096 0
0.28966 -0.031403 0
0.205216 -0.0451777 0
0.219797 -0.0440735 0
0.193598 -0.044366 0
0.289648 -0.0327316 0
0.220187 -0.0446098 0
0.29959 -0.0408047 0
0.213529 -0.0458114 0
0.215811 -0.0455961 0
0.289632 -0.034046 0
0.220568 -0.0451533 0
0.294857 -0.0382995 0
0.256353 -0.0434836 0
0.289603 -0.0357406 0
0.30674 -0.0480056 0
0.221077 -0.0459115 0
0.305518 -0.047566 0
0.199091 -0.0467016 0
0.228062 -0.0454261 0
0.297107 -0.0479762 0
0.289568 -0.0374141 0
0.221564 -0.0466829 0
0.299156 -0.0449523 0
0.302266 -0.0481807 0
0.28951 -0.0395604 0
0.222206 -0.0477298 0
0.269153 -0.0481051 0
0.204715 -0.0486271 0
0.282901 -0.035629 0
0.29441 -0.0450584 0
0.217623 -0.0490832 0
0.289439 -0.0416754 0
0.282907 -0.0368051 0
0.21779 -0.0493177 0
0.222823 -0.0487945 0
0.218037 -0.0496665 0
0.193033 -0.0477174 0
0.282909 -0.0381947 0
0.298532 -0.0499529 0
0.304145 -0.0533038 0
0.218392 -0.0501778 0
0.289329 -0.0443602 0
0.282905 -0.0398819 0
0.223652 -0.0502208 0
0.238271 -0.0504023 0
0.218887 -0.0509171 0
0.212736 -0.0513371 0
0.280178 -0.0532511 0
0.28289 -0.0419722 0
0.289198 -0.0469982 0
0.219557 -0.0519713 0
0.224472 -0.0516923 0
0.297818 -0.054795 0
0.282855 -0.044593 0
0.204019 -0.052054 0
0.293645 -0.0531785 0
0.289001 -0.0502988 0
0.220442 -0.0534558 0
0.120353 -0.029178 0
0.159634 -0.0417521 0
0.300546 -0.0597222 0
0.226155 -0.0536277 0
0.208122 -0.0537193 0
0.282784 -0.0478918 0
0.300016 -0.0596805 0
0.289614 -0.0597556 0
0.19222 -0.0510506 0
0.28877 -0.0535304 0
0.221577 -0.0555274 0
0.296815 -0.0604952 0
0.216385 -0.055794 0
0.275926 -0.0458597 0
0.216467 -0.0559147 0
0.216548 -0.0560358 0
0.228586 -0.0556467 0
0.197663 -0.0533391 0
0.275929 -0.0464956 0
0.258172 -0.0582445 0
0.216664 -0.0562146 0
0.282649 -0.0520298 0
0.21678 -0.0563941 0
0.275932 -0.047128 0
0.216945 -0.0566552 0
0.275934 -0.0478637 0
0.217108 -0.0569177 0
0.28843 -0.0575029 0
0.275934 -0.0485951 0
0.217337 -0.0572942 0
0.275933 -0.0494696 0
0.217563 -0.0576734 0
0.203046 -0.0557086 0
0.27593 -0.0503386 0
0.21135 -0.0574788 0
0.294223 -0.0655122 0
0.217874 -0.0582099 0
0.292387 -0.0626955 0
0.275924 -0.0514013 0
0.222925 -0.0584237 0
0.218179 -0.0587521 0
0.233586 -0.0584355 0
0.282405 -0.0571692 0
0.275915 -0.0524565 0
0.288037 -0.0613774 0
0.295679 -0.0659857 0
0.213399 -0.0586659 0
0 0 0
0.218584 -0.0595099 0
0.275899 -0.0537679 0
0.19118 -0.054372 0
0.218979 -0.0602792 0
0.275878 -0.0550686 0
0.275844 -0.056699 0
0.219489 -0.0613427 0
0.240283 -0.0618645 0
0.287478 -0.0660486 0
0.275804 -0.0583137 0
0.281981 -0.0634566 0
0.21997 -0.0624318 0
0.224661 -0.0624867 0
0.294663 -0.0720941 0
0.201877 -0.0593304 0
0.275741 -0.0603411 0
0.294096 -0.0723383 0
0.279754 -0.0696492 0
0.118844 -0.0312446 0
0.220556 -0.06392 0
0.214382 -0.0631583 0
0.275666 -0.0623448 0
0.214522 -0.0634012 0
0.286841 -0.0705845 0
0.214726 -0.0637619 0
0.267685 -0.0575176 0
0.249849 -0.0670607 0
0.290406 -0.0735569 0
0.215017 -0.0642896 0
0.221058 -0.0654531 0
0.275554 -0.0648492 0
0.26769 -0.0589064 0
0.209451 -0.0634993 0
0.189922 -0.0576604 0
0.215419 -0.0650512 0
0.267689 -0.0604757 0
0.195421 -0.0599656 0
0.281274 -0.071003 0
0.205122 -0.0632867 0
0.275422 -0.067318 0
0.215955 -0.066136 0
0.221652 -0.0674792 0
0.267679 -0.062297 0
0.292246 -0.0782673 0
0.228662 -0.0686363 0
0.285964 -0.0759305 0
0.267655 -0.0644607 0
0.216639 -0.067663 0
0.200372 -0.0631818 0
0.259815 -0.073334 0
0.275228 -0.0703739 0
0.222127 -0.0695486 0
0.156599 -0.0475727 0
0.267608 -0.0670772 0
0.275004 -0.0733775 0
0.217455 -0.0697882 0
0.0641874 -0.0160873 0
0.284979 -0.0811014 0
0.267522 -0.0702756 0
0.188447 -0.0609216 0
0.222657 -0.0722258 0
0.280131 -0.0798556 0
0.274682 -0.0770439 0
0.286486 -0.0841476 0
0.211759 -0.0702958 0
0.211823 -0.0704194 0
0.211887 -0.0705432 0
0.211981 -0.070726 0
0.269481 -0.0815336 0
0.212073 -0.0709095 0
0.218361 -0.0727046 0
0.287379 -0.0855029 0
0.212206 -0.0711762 0
0.267372 -0.0741989 0
0.212337 -0.0714442 0
0.212521 -0.0718278 0
0.206817 -0.0700195 0
0.198676 -0.0669791 0
0.259121 -0.0691343 0
0.223178 -0.0749555 0
0.212702 -0.0722139 0
0.116922 -0.033052 0
0.274315 -0.0806344 0
0.259124 -0.0698934 0
0.239497 -0.078354 0
0.212948 -0.072758 0
0.259125 -0.0706499 0
0.283615 -0.0870257 0
0.213187 -0.0733067 0
0.259125 -0.0714911 0
0.259122 -0.0723291 0
0.213505 -0.0740681 0
0.267117 -0.0789953 0
0.259117 -0.073285 0
0.208262 -0.0725817 0
0.213808 -0.0748379 0
0.259109 -0.0742369 0
0.219307 -0.0766409 0
0.2738 -0.0849421 0
0.192387 -0.0665462 0
0.259097 -0.0753489 0
0.186784 -0.064131 0
0.275666 -0.0892134 0
0.224588 -0.078559 0
0.214197 -0.0758896 0
0.259081 -0.0764555 0
0.278348 -0.0899747 0
0.214561 -0.0769541 0
0.259056 -0.0777745 0
0.282086 -0.0927729 0
0 0 0
0.259027 -0.0790858 0
0.266696 -0.0848041 0
0.273216 -0.0891427 0
0.214999 -0.0783895 0
0.258983 -0.0806719 0
0.196591 -0.0709886 0
0.227011 -0.0824639 0
0.258932 -0.0822467 0
0.215405 -0.0798447 0
0.200377 -0.0734623 0
0.220175 -0.0818923 0
0.258859 -0.0841672 0
0.208247 -0.0778884 0
0.208367 -0.0781353 0
0.20854 -0.0785012 0
0.203676 -0.0763367 0
0.272419 -0.0940854 0
0.215864 -0.0817801 0
0.278342 -0.0977088 0
0.208785 -0.0790353 0
0.258773 -0.0860711 0
0.25746 -0.0921839 0