# vtk DataFile Version 3.0
File generated from DClib
ASCII

DATASET UNSTRUCTURED_GRID
POINTS 1909 float
50 0 0 
48.75 0 0 
50 1.66667 0 
47.5 0 0 
50 3.33333 0 
46.25 0 0 
50 5 0 
45 0 0 
43.75 0 0 
50 6.66667 0 
43 2 0 
42.5 0 0 
50 8.33333 0 
43 4.66667 0 
41.25 0 0 
41.075 2 0 
50 10 0 
40 0 0 
43 7.33333 0 
39.15 2 0 
38.75 0 0 
43 10 0 
37.5 0 0 
37.225 2 0 
36.25 0 0 
36 4 0 
35.3 2 0 
36 5 0 
35 0 0 
35.325 4 0 
36 6 0 
36 7 0 
34.65 4 0 
36 8 0 
33.75 0 0 
33.975 4 0 
36 9 0 
33.375 2 0 
33.3 4 0 
36 10 0 
32.5 0 0 
32.625 4 0 
33 6 0 
31.95 4 0 
33 7.45455 0 
31.45 2 0 
31.25 0 0 
31.95 6 0 
33 8.79545 0 
31.275 4 0 
33 10 0 
30.6 4 0 
30 0 0 
30.9 6 0 
29.925 4 0 
29.525 2 0 
29.85 6 0 
29.25 4 0 
28.75 0 0 
30 8 0 
30 8.45455 0 
28.575 4 0 
29.625 8 0 
30 8.90909 0 
28.8 6 0 
30 9.25 0 
29.782 8.90909 0 
30 9.59091 0 
29.9487 9.59091 0 
29.25 8 0 
29.7462 9.25 0 
30 9.79545 0 
29.897 9.59091 0 
29.564 8.90909 0 
29.9547 9.79545 0 
29.3462 8.45455 0 
29.84 9.59091 0 
30 10 0 
29.8975 9.79545 0 
29.9882 10 0 
29.9902 10.0098 0 
29.7827 9.59091 0 
29.9765 10 0 
29.9804 10.0196 0 
29.9667 10.0098 0 
29.9591 10 0 
29.9686 10.0196 0 
29.9659 10.0341 0 
29.9569 10.0196 0 
29.9418 10 0 
29.9395 10.0196 0 
29.9515 10.0485 0 
29.932 10.0098 0 
29.9424 10.0341 0 
29.8241 9.79545 0 
29.7181 9.59091 0 
29.9166 10 0 
29.9397 10.0485 0 
29.9222 10.0196 0 
29.9279 10.0485 0 
29.9305 10.0695 0 
29.8914 10 0 
29.9077 10.0341 0 
27.9 4 0 
29.897 10.0196 0 
29.9106 10.0485 0 
29.8817 10.0098 0 
29.907 10.0695 0 
29.8933 10.0485 0 
29.9095 10.0905 0 
29.8719 10.0196 0 
27.6 2 0 
29.8556 10 0 
29.8978 10.0905 0 
29.6531 9.59091 0 
29.3437 8.90909 0 
27.5 0 0 
29.8681 10.0485 0 
29.886 10.0905 0 
29.8574 10.0341 0 
29.4839 9.25 0 
29.8723 10.0695 0 
29.7289 9.79545 0 
29.836 10.0196 0 
29.8687 10.0905 0 
29.8197 10 0 
29.8797 10.1203 0 
29.843 10.0485 0 
29.8513 10.0905 0 
29.81 10.0098 0 
29.8561 10.1203 0 
29.8002 10.0196 0 
29.8221 10.0695 0 
29.8072 10.0485 0 
29.8262 10.0905 0 
29.5782 9.59091 0 
29.8498 10.1502 0 
29.7695 10 0 
29.7858 10.0341 0 
29.838 10.1502 0 
29.8215 10.1203 0 
29.8011 10.0905 0 
29.8262 10.1502 0 
29.7714 10.0485 0 
28.875 8 0 
29.75 10.0196 0 
29.8089 10.1502 0 
29.7654 10.0905 0 
29.7193 10 0 
29.7916 10.1502 0 
29.7505 10.0695 0 
29.8079 10.1921 0 
29.7713 10.1203 0 
29.7096 10.0098 0 
29.6047 9.79545 0 
29.503 9.59091 0 
29.7213 10.0485 0 
29.7665 10.1502 0 
29.6999 10.0196 0 
29.7844 10.1921 0 
29.7296 10.0905 0 
29.6856 10.0341 0 
29.7414 10.1502 0 
29.7497 10.1921 0 
29.6503 10 0 
29.7661 10.2339 0 
29.6712 10.0485 0 
29.6999 10.1203 0 
29.7543 10.2339 0 
29.6796 10.0905 0 
29.7057 10.1502 0 
29.7425 10.2339 0 
29.1235 8.90909 0 
29.6309 10.0196 0 
29.6504 10.0695 0 
29.4146 9.59091 0 
29.7252 10.2339 0 
29.6996 10.1921 0 
29.6701 10.1502 0 
29.7079 10.2339 0 
29.6296 10.0905 0 
29.5813 10 0 
29.6023 10.0485 0 
29.5716 10.0098 0 
29.6828 10.2339 0 
29.7086 10.2914 0 
29.2101 9.25 0 
29.562 10.0196 0 
29.6201 10.1502 0 
29.6578 10.2339 0 
29.4428 9.79545 0 
29.5999 10.1203 0 
29.6849 10.2914 0 
29.6283 10.1921 0 
29.5477 10.0341 0 
29.3259 9.59091 0 
29.5608 10.0905 0 
29.5335 10.0485 0 
29.6221 10.2339 0 
29.6503 10.2914 0 
29.5702 10.1502 0 
29.4881 10 0 
29.5128 10.0695 0 
29.6511 10.3489 0 
29.5866 10.2339 0 
29.6392 10.3489 0 
29.4689 10.0196 0 
29.6002 10.2914 0 
29.6273 10.3489 0 
29.4921 10.0905 0 
29.61 10.3489 0 
29.5286 10.1921 0 
29.5016 10.1502 0 
29.5368 10.2339 0 
29.5926 10.3489 0 
29.4405 10.0485 0 
29.2199 9.59091 0 
29.4626 10.1203 0 
29.3949 10 0 
28.9 8.90909 0 
29.5676 10.3489 0 
29.5291 10.2914 0 
29.3853 10.0098 0 
28.6923 8.45455 0 
29.487 10.2339 0 
29.5426 10.3489 0 
29.3758 10.0196 0 
29.5734 10.4266 0 
29.4331 10.1502 0 
29.3993 10.0905 0 
28.5 8 0 
29.3617 10.0341 0 
29.5496 10.4266 0 
29.5071 10.3489 0 
29.2327 9.79545 0 
29.3475 10.0485 0 
29.1136 9.59091 0 
29.4187 10.2339 0 
29.5148 10.4266 0 
29.4716 10.3489 0 
29.3918 10.1921 0 
29.3271 10.0695 0 
29.4298 10.2914 0 
29.2714 10 0 
29.3406 10.1502 0 
28.9208 9.25 0 
29.3066 10.0905 0 
29.4648 10.4266 0 
29.422 10.3489 0 
29.4958 10.5042 0 
29.2524 10.0196 0 
27.75 6 0 
29.3504 10.2339 0 
29.4837 10.5042 0 
29.4718 10.5042 0 
29.2774 10.1203 0 
29.4543 10.5042 0 
29.3724 10.3489 0 
29.2244 10.0485 0 
29.4369 10.5042 0 
29.3938 10.4266 0 
28.9853 9.59091 0 
29.2481 10.1502 0 
28.6766 8.90909 0 
29.4119 10.5042 0 
29.2934 10.2914 0 
27.225 4 0 
29.148 10 0 
29.2582 10.2339 0 
29.1837 10.0905 0 
29.3869 10.5042 0 
29.1385 10.0098 0 
29.3044 10.3489 0 
29.1291 10.0196 0 
29.2072 10.1921 0 
29.3514 10.5042 0 
29.1152 10.0341 0 
29.3929 10.6071 0 
29.2949 10.4266 0 
29.1013 10.0485 0 
29.3686 10.6071 0 
29.316 10.5042 0 
29.2364 10.3489 0 
28.9623 9.79545 0 
29.1257 10.1502 0 
29.1662 10.2339 0 
29.0811 10.0695 0 
28.8566 9.59091 0 
29.3336 10.6071 0 
29.2666 10.5042 0 
29.0609 10.0905 0 
28.9875 10 0 
29.2835 10.6071 0 
29.1448 10.3489 0 
29.0321 10.1203 0 
29.2173 10.5042 0 
29.1098 10.2914 0 
28.125 8 0 
28.9688 10.0196 0 
29.1594 10.4266 0 
28.611 9.25 0 
29.29 10.71 0 
28.4486 8.90909 0 
29.0443 10.2339 0 
29.0033 10.1502 0 
29.2777 10.71 0 
28.9413 10.0485 0 
29.2128 10.6071 0 
29.2655 10.71 0 
29.1497 10.5042 0 
29.2478 10.71 0 
28.7003 9.59091 0 
29.0533 10.3489 0 
29.2303 10.71 0 
28.9629 10.1921 0 
28.9013 10.0905 0 
29.2051 10.71 0 
29.0822 10.5042 0 
29.1801 10.71 0 
28.827 10 0 
29.1144 10.6071 0 
28.8177 10.0098 0 
28.9225 10.2339 0 
28.8085 10.0196 0 
29.1447 10.71 0 
28.7949 10.0341 0 
28.8443 10.1502 0 
28.977 10.4266 0 
28.9322 10.3489 0 
29.1094 10.71 0 
28.7813 10.0485 0 
28.9912 10.5042 0 
29.1562 10.8438 0 
28.5436 9.59091 0 
28.7615 10.0695 0 
28.8669 10.2914 0 
29.1313 10.8438 0 
28.6184 9.79545 0 
29.0602 10.71 0 
28.2207 8.90909 0 
28.7418 10.0905 0 
28.0378 8.45455 0 
28.9798 10.6071 0 
29.0958 10.8438 0 
29.0112 10.71 0 
28.9005 10.5042 0 
28.7136 10.1203 0 
28.7644 10.2339 0 
28.8113 10.3489 0 
29.0454 10.8438 0 
28.6223 10 0 
28.6854 10.1502 0 
28.2746 9.25 0 
28.9441 10.71 0 
28.6042 10.0196 0 
27.75 8 0 
28.9747 10.8438 0 
28.6459 10.1921 0 
28.5773 10.0485 0 
29.0225 10.9775 0 
28.3532 9.59091 0 
28.7804 10.5042 0 
28.736 10.4266 0 
28.8772 10.71 0 
29.0097 10.9775 0 
28.9971 10.9775 0 
28.799 10.6071 0 
28.9791 10.9775 0 
28.5384 10.0905 0 
28.6064 10.2339 0 
28.6543 10.3489 0 
28.9611 10.9775 0 
28.8769 10.8438 0 
27.9867 8.90909 0 
26.25 0 0 
28.9358 10.9775 0 
28.7871 10.71 0 
28.9106 10.9775 0 
28.6607 10.5042 0 
28.4177 10 0 
26.55 4 0 
28.552 10.2914 0 
28.483 10.1502 0 
28.4087 10.0098 0 
28.8751 10.9775 0 
28.3998 10.0196 0 
28.3866 10.0341 0 
28.8399 10.9775 0 
28.6974 10.71 0 
28.3735 10.0485 0 
28.1625 9.59091 0 
28.7436 10.8438 0 
28.4976 10.3489 0 
28.3543 10.0695 0 
28.791 10.9775 0 
28.4052 10.2339 0 
28.3352 10.0905 0 
28.8519 11.1481 0 
28.1869 9.79545 0 
28.5607 10.6071 0 
28.5053 10.5042 0 
28.7423 10.9775 0 
28.8258 11.1481 0 
28.308 10.1203 0 
28.5787 10.71 0 
27.904 9.25 0 
28.7893 11.1481 0 
28.424 10.4266 0 
27.7528 8.90909 0 
28.2807 10.1502 0 
28.6758 10.9775 0 
27.375 8 0 
28.7383 11.1481 0 
28.1619 10 0 
28.5649 10.8438 0 
28.2425 10.1921 0 
28.6096 10.9775 0 
28.1444 10.0196 0 
28.298 10.3489 0 
28.4605 10.71 0 
26.7 6 0 
27.9315 9.59091 0 
28.3503 10.5042 0 
28.6676 11.1481 0 
28.1187 10.0485 0 
28.2042 10.2339 0 
28.5207 10.9775 0 
28.0813 10.0905 0 
28.6814 11.3186 0 
27.3818 8.45455 0 
28.6679 11.3186 0 
28.1516 10.2914 0 
28.5703 11.1481 0 
28.6544 11.3186 0 
28.6358 11.3186 0 
27.5109 8.90909 0 
28.3072 10.71 0 
28.6173 11.3186 0 
28.2524 10.6071 0 
28.4322 10.9775 0 
28.028 10.1502 0 
28.5915 11.3186 0 
28.0989 10.3489 0 
28.33 10.8438 0 
28.5658 11.3186 0 
28.153 10.5042 0 
27.9061 10 0 
27.8975 10.0098 0 
28.5303 11.3186 0 
28.4384 11.1481 0 
27.7002 9.59091 0 
27.889 10.0196 0 
27.8765 10.0341 0 
28.4949 11.3186 0 
28.3154 10.9775 0 
27.9532 10.2339 0 
27.8639 10.0485 0 
28.0276 10.4266 0 
28.1544 10.71 0 
27.8457 10.0695 0 
27.4909 9.25 0 
28.4463 11.3186 0 
27 8 0 
27.8275 10.0905 0 
28.3979 11.3186 0 
27.8015 10.1203 0 
27.6542 9.79545 0 
25.675 2 0 
28.1991 10.9775 0 
27.2691 8.90909 0 
27.9563 10.5042 0 
28.4682 11.5318 0 
28.2625 11.1481 0 
27.7755 10.1502 0 
28.3322 11.3186 0 
27.8502 10.3489 0 
28.4401 11.5318 0 
25.875 4 0 
27.7391 10.1921 0 
28.4019 11.5318 0 
28.0268 10.8438 0 
28.2668 11.3186 0 
27.9602 10.71 0 
28.3498 11.5318 0 
27.4223 9.59091 0 
27.7026 10.2339 0 
27.5927 10 0 
28.0486 10.9775 0 
27.8616 10.6071 0 
27.5762 10.0196 0 
28.1794 11.3186 0 
28.2786 11.5318 0 
27.5519 10.0485 0 
27.6524 10.2914 0 
28.0319 11.1481 0 
27.7108 10.5042 0 
27.5167 10.0905 0 
27.0169 8.90909 0 
28.0924 11.3186 0 
27.6021 10.3489 0 
27.8988 10.9775 0 
28.1818 11.5318 0 
27.7667 10.71 0 
26.625 8 0 
28.255 11.745 0 
27.4664 10.1502 0 
28.2402 11.745 0 
28.2256 11.745 0 
28.2059 11.745 0 
27.978 11.3186 0 
26.7234 8.45455 0 
27.0259 9.25 0 
27.5342 10.4266 0 
28.1863 11.745 0 
27.1442 9.59091 0 
28.0516 11.5318 0 
28.1598 11.745 0 
27.3959 10.2339 0 
28.1334 11.745 0 
27.2793 10 0 
27.2714 10.0098 0 
27.2635 10.0196 0 
27.7086 10.9775 0 
27.6431 10.8438 0 
28.0975 11.745 0 
27.8643 11.3186 0 
27.4661 10.5042 0 
27.2518 10.0341 0 
27.2401 10.0485 0 
28.0617 11.745 0 
26.7648 8.90909 0 
27.5255 10.71 0 
27.7353 11.1481 0 
27.2231 10.0695 0 
28.0133 11.745 0 
27.2061 10.0905 0 
27.8791 11.5318 0 
27.2986 10.3489 0 
27.1818 10.1203 0 
27.9651 11.745 0 
27.3758 10.6071 0 
27.0077 9.79545 0 
27.7174 11.3186 0 
27.1576 10.1502 0 
25 0 0 
27.5193 10.9775 0 
27.9003 11.745 0 
27.1236 10.1921 0 
26.25 8 0 
27.9939 12.0061 0 
25.65 6 0 
27.8359 11.745 0 
26.8136 9.59091 0 
27.0896 10.2339 0 
27.9626 12.0061 0 
27.2853 10.71 0 
25.2 4 0 
27.5713 11.3186 0 
27.9218 12.0061 0 
26.4998 8.90909 0 
27.167 10.5042 0 
27.6541 11.5318 0 
27.0427 10.2914 0 
27.7503 11.745 0 
26.9033 10 0 
27.8677 12.0061 0 
26.8882 10.0196 0 
26.8659 10.0485 0 
26.9958 10.3489 0 
27.2836 10.9775 0 
27.6652 11.745 0 
27.3609 11.1481 0 
27.7955 12.0061 0 
26.499 9.25 0 
[...]
POINT_DATA 1909
SCALARS phi float 1
LOOKUP_TABLE default
VECTORS Displacement float
0 0 0
0 0 0
0 -0.000614613 0
0 0 0
0 -0.000838036 0
0 0 0
0 -0.000703783 0
0 0 0
0 0 0
0 -0.000251695 0
0.00181447 -0.000561523 0
0 0 0
0 0.000498442 0
0.00355653 -0.000345244 0
0 0 0
0.00243502 -0.000554974 0
0 0.00150797 0
0 0 0
0.00476255 0.000797084 0
0.00311028 -0.000564385 0
0 0 0
0.00547654 0.00258673 0
0 0 0
0.00382612 -0.000601977 0
0 0 0
0.00731061 -0.000427486 0
0.00454481 -0.000667562 0
0.00870225 -1.56399e-05 0
0 0 0
0.00782468 -0.000463797 0
0.0097588 0.000561109 0
0.0105203 0.00126625 0
0.00832434 -0.000507704 0
0.0110558 0.00204481 0
0 0 0
0.00881806 -0.000577408 0
0.0113918 0.00286844 0
0.00522536 -0.000757345 0
0.00929529 -0.000656177 0
0.0115642 0.00369586 0
0 0 0
0.00974699 -0.000750042 0
0.0126233 0.000188198 0
0.0101764 -0.00085289 0
0.0140169 0.00128935 0
0.00583085 -0.000867768 0
0 0 0
0.0135872 -0.000208425 0
0.0147445 0.00262474 0
0.0105738 -0.000966586 0
0.014767 0.00403596 0
0.0109421 -0.0010888 0
0 0 0
0.0143898 -0.000601901 0
0.0112765 -0.00122004 0
0.00632912 -0.000996676 0
0.0150704 -0.0010209 0
0.0115757 -0.00135985 0
0 0 0
0.0176493 -0.000128781 0
0.0181438 0.000174211 0
0.0118397 -0.00150727 0
0.0179565 -0.000400235 0
0.0186282 0.000523265 0
0.0156328 -0.00147409 0
0.0189377 0.000852034 0
0.0188526 0.000304238 0
0.0191986 0.00124588 0
0.0192693 0.00112672 0
0.0182277 -0.000672622 0
0.019213 0.000523262 0
0.0193096 0.00152326 0
0.0193294 0.00102069 0
0.0190535 8.41504e-05 0
0.0193776 0.0013619 0
0.0187138 -0.000379562 0
0.0193874 0.000917169 0
0.0192984 0.00184195 0
0.0194545 0.00120603 0
0.0193287 0.00181626 0
0.0200925 0.00211149 0
0.0194415 0.000825261 0
0.0193634 0.00178587 0
0.0202855 0.00213615 0
0.019988 0.00197318 0
0.0194152 0.00172136 0
0.0202627 0.0020587 0
0.0202941 0.00205084 0
0.0202327 0.00198663 0
0.0194675 0.00166296 0
0.0201745 0.0018826 0
0.0202918 0.00196229 0
0.0199065 0.00178112 0
0.0202718 0.00190507 0
0.0195484 0.00106148 0
0.0195035 0.000738117 0
0.0195414 0.00157907 0
0.0202847 0.00188995 0
0.0201204 0.00179049 0
0.0202768 0.00182392 0
0.0203114 0.00184295 0
0.0196133 0.0015107 0
0.0202166 0.00173322 0
0.0120636 -0.00166422 0
0.0200614 0.00167607 0
0.0202642 0.00174125 0
0.019876 0.00157535 0
0.0203014 0.00172101 0
0.0202512 0.00167307 0
0.020345 0.00173562 0
0.0200325 0.00158678 0
0.00669091 -0.00114298 0
0.0197088 0.00143016 0
0.0203416 0.00168088 0
0.0195673 0.000660046 0
0.0192433 -0.000128381 0
0 0 0
0.0202354 0.0015944 0
0.0203389 0.00163566 0
0.0201521 0.00156333 0
0.0194535 0.000226915 0
0.0202882 0.00159657 0
0.0196761 0.000932795 0
0.0200212 0.00148292 0
0.0203371 0.00158079 0
0.0197996 0.00136292 0
0.0204211 0.00161365 0
0.020221 0.00152715 0
0.0203367 0.00153463 0
0.0199401 0.00139176 0
0.020421 0.00154468 0
0.0200397 0.0013981 0
0.0202794 0.00147126 0
0.0202119 0.00144162 0
0.0203383 0.00147771 0
0.0196433 0.000579413 0
0.0205066 0.00152657 0
0.0199136 0.0012868 0
0.0201399 0.00138727 0
0.0205092 0.0015014 0
0.0204261 0.00146798 0
0.0203429 0.00142657 0
0.0205123 0.00147789 0
0.0202136 0.00136593 0
0.0184904 -0.000950711 0
0.020081 0.00130029 0
0.0205172 0.00144617 0
0.0203538 0.00136142 0
0.0200168 0.00121179 0
0.0205227 0.00141638 0
0.0202935 0.00133097 0
0.0206524 0.00144465 0
0.0204414 0.00137736 0
0.0200808 0.00121374 0
0.0198487 0.000801053 0
0.0197236 0.000502803 0
0.0202361 0.0012734 0
0.0205321 0.00137594 0
0.0201407 0.0012121 0
0.0206554 0.00140833 0
0.0203697 0.0013026 0
0.0202115 0.00120251 0
0.0205425 0.00133818 0
0.020664 0.00135835 0
0.0201352 0.00111289 0
0.0207877 0.00138119 0
0.0202749 0.00119112 0
0.0204749 0.00126907 0
0.0207894 0.00136645 0
0.0203994 0.00122733 0
0.0205595 0.00128746 0
0.0207916 0.00135167 0
0.0194225 -0.000334431 0
0.020223 0.00110648 0
0.0203568 0.00117406 0
0.0198169 0.000414712 0
0.0207955 0.00133 0
0.0206819 0.00129084 0
0.0205777 0.00123914 0
0.0208003 0.00130842 0
0.0204337 0.0011569 0
0.020235 0.0010095 0
0.0203386 0.00108952 0
0.0202724 0.00100665 0
0.0208079 0.00127757 0
0.0209671 0.00131008 0
0.019698 -4.5907e-05 0
0.020309 0.00100331 0
0.0206065 0.00117276 0
0.0208165 0.00124675 0
0.0200565 0.000631103 0
0.0205377 0.00113228 0
0.0209696 0.00128391 0
0.0207142 0.00119911 0
0.0203601 0.000996993 0
0.0199124 0.000326155 0
0.0204894 0.00106039 0
0.0204102 0.000989807 0
0.02083 0.0012029 0
0.0209755 0.00124485 0
0.0206369 0.00110695 0
0.0203503 0.000885219 0
0.0204808 0.000978039 0
0.0211276 0.00124484 0
0.0208448 0.00115867 0
0.0211287 0.00123255 0
0.0204122 0.000877439 0
0.0209879 0.00118683 0
0.02113 0.00122009 0
0.0205489 0.000964894 0
0.0211324 0.00120149 0
0.020768 0.00107027 0
0.0206837 0.00101441 0
0.0208675 0.00109584 0
0.0211353 0.00118252 0
0.020503 0.000863414 0
0.0200209 0.000217589 0
0.0206427 0.000944252 0
0.0204522 0.000760882 0
0.0195955 -0.00054052 0
0.02114 0.00115455 0
0.0210111 0.00110131 0
0.0204814 0.000756896 0
0.0191867 -0.000919913 0
0.0208922 0.00103192 0
0.0211456 0.00112595 0
0.0205106 0.000752634 0
0.0213235 0.00116032 0
0.0207328 0.000921908 0
0.0206299 0.000838798 0
0.0187255 -0.00123686 0
0.020552 0.000745894 0
0.0213254 0.00113555 0
0.0211546 0.00108434 0
0.0202873 0.0003982 0
0.0205932 0.00073862 0
0.0201281 0.000105962 0
0.0209292 0.000942459 0
0.0213295 0.00109813 0
0.0211649 0.00104177 0
0.0208535 0.000888255 0
0.020652 0.000727096 0
0.0210515 0.000976622 0
0.0205735 0.000606283 0
0.0208013 0.000797334 0
0.0199465 -0.000330262 0
0.0207099 0.000714623 0
0.0213377 0.00104196 0
0.0211812 0.000980831 0
0.0214978 0.00107538 0
0.0206251 0.000596528 0
0.0160684 -0.00196187 0
0.0209683 0.00085222 0
0.0214987 0.00106281 0
0.0214996 0.00105013 0
0.0207908 0.000695178 0
0.0215013 0.00103135 0
0.0211992 0.000918636 0
0.020701 0.000580583 0
0.0215032 0.00101231 0
0.0213535 0.000958567 0
0.0202489 -3.28321e-05 0
0.0208695 0.000674058 0
0.0197603 -0.000749593 0
0.0215065 0.000984357 0
0.0211169 0.000799361 0
0.0122502 -0.00182679 0
0.0206838 0.000449031 0
0.0210234 0.000729609 0
0.0208087 0.000554576 0
0.0215102 0.000955919 0
0.0207083 0.000443657 0
0.0212264 0.000831521 0
0.0207326 0.000438119 0
0.0209763 0.000641894 0
0.0215163 0.00091467 0
0.0207679 0.000429673 0
0.021702 0.000961011 0
0.0213816 0.000836738 0
0.0208029 0.000420879 0
0.0217036 0.000934857 0
0.0215233 0.000872601 0
0.0212557 0.000743095 0
0.0205413 8.30299e-05 0
0.0209566 0.000512224 0
0.021079 0.000607071 0
0.0208532 0.000407488 0
0.0203649 -0.000175695 0
0.0217066 0.000896093 0
0.0215344 0.000812509 0
0.0209029 0.000393394 0
0.0208152 0.000245768 0
0.0217124 0.000838823 0
0.0212973 0.000622127 0
0.0209725 0.000372102 0
0.0215468 0.000751205 0
0.0212134 0.000555434 0
0.018944 -0.00153095 0
0.0208594 0.000233459 0
0.0214284 0.000662666 0
0.0201906 -0.000646176 0
0.0218804 0.000843825 0
0.0199169 -0.000966992 0
0.0211521 0.000443954 0
0.0210407 0.000349516 0
0.0218811 0.000830249 0
0.0209242 0.000214255 0
0.0217231 0.00075482 0
0.0218819 0.000816621 0
0.0215657 0.000665221 0
0.0218831 0.000796721 0
0.0204946 -0.000353665 0
0.0213402 0.000499984 0
0.0218846 0.000776667 0
0.0211337 0.000315786 0
0.0210162 0.000184326 0
0.0218869 0.000747554 0
0.0215861 0.000577646 0
0.0218895 0.000718106 0
0.0209356 3.86991e-05 0
0.021742 0.000633006 0
0.0209563 3.19929e-05 0
0.0212237 0.000279843 0
0.020977 2.51664e-05 0
0.0218937 0.000675762 0
0.0210071 1.48935e-05 0
0.0211434 0.000137679 0
0.0214999 0.000420079 0
0.0213981 0.000336128 0
0.0218984 0.000632792 0
0.021037 4.3662e-06 0
0.0216158 0.000457302 0
0.0220791 0.000686748 0
0.0206158 -0.000535732 0
0.0210799 -1.13509e-05 0
0.0213427 0.000227052 0
0.0220805 0.000657939 0
0.0208142 -0.000336316 0
0.0219058 0.000571776 0
0.0200609 -0.00119026 0
0.0211224 -2.75811e-05 0
0.0195761 -0.0014897 0
0.0217738 0.000459139 0
0.0220828 0.000616133 0
0.021914 0.00050972 0
0.0216469 0.000335061 0
0.021182 -5.15897e-05 0
0.0213131 6.51951e-05 0
0.0214558 0.000170774 0
0.0220869 0.000555476 0
0.0210757 -0.000228067 0
0.0212405 -7.6585e-05 0
0.0204233 -0.00100399 0
0.0219265 0.000422943 0
0.0211134 -0.000242863 0
0.0191334 -0.00183302 0
0.0220941 0.000467873 0
0.0213205 -0.0001132 0
0.0211683 -0.000265446 0
0.0222459 0.000523754 0
0.0207497 -0.000761259 0
0.0216897 0.000170503 0
0.0215996 8.98587e-05 0
0.0219401 0.000334628 0
0.0222465 0.000508462 0
0.0222471 0.000493171 0
0.0218236 0.000215861 0
0.0222481 0.000471274 0
0.0212465 -0.000299741 0
0.0213983 -0.000151595 0
0.0215293 -4.64383e-05 0
0.0222492 0.000449307 0
0.0221066 0.000342411 0
0.0201955 -0.00142373 0
0 0 0
0.0222509 0.000417888 0
0.02196 0.000213316 0
0.0222527 0.000386269 0
0.0217332 3.87628e-06 0
0.0212022 -0.000498684 0
0.012393 -0.00200103 0
0.0215015 -0.000207171 0
0.0213547 -0.000351663 0
0.0212197 -0.000506607 0
0.0222556 0.000341332 0
0.0212371 -0.000514619 0
0.0212625 -0.000526596 0
0.0222587 0.000295973 0
0.0219811 8.99834e-05 0
0.0212877 -0.000538765 0
0.0208712 -0.000990612 0
0.0221272 0.000164897 0
0.0216003 -0.000265734 0
0.0213239 -0.000556749 0
0.0222635 0.000232154 0
0.0214996 -0.000430031 0
0.0213597 -0.000575128 0
0.0224174 0.000307061 0
0.0210934 -0.000880676 0
0.0218951 -0.00011683 0
0.0217895 -0.000215624 0
0.0222688 0.000167571 0
0.0224186 0.000273992 0
0.02141 -0.000601993 0
0.0220104 -7.60846e-05 0
0.0206395 -0.00141173 0
0.0224204 0.000227258 0
0.0217265 -0.000349213 0
0.0203152 -0.00166218 0
0.0214594 -0.00062963 0
0.0222767 7.78826e-05 0
0.0192994 -0.00214215 0
0.0224234 0.000160899 0
0.0213432 -0.0008406 0
0.0221594 -8.22416e-05 0
0.0215271 -0.000669599 0
0.0222852 -1.30282e-05 0
0.0213746 -0.000857688 0
0.0216856 -0.000547718 0
0.0220405 -0.000244485 0
0.0163681 -0.00248229 0
0.0210016 -0.00127211 0
0.0218446 -0.00043735 0
0.0224283 6.68099e-05 0
0.0214205 -0.000883473 0
0.021593 -0.000711004 0
0.0222976 -0.000137312 0
0.0214858 -0.000922061 0
0.0225493 8.02648e-05 0
0.0198795 -0.00208892 0
0.0225498 6.23463e-05 0
0.0216806 -0.000770216 0
0.0224361 -6.58044e-05 0
0.0225503 4.44764e-05 0
0.0225511 1.95642e-05 0
0.0204244 -0.00191236 0
0.0220799 -0.000466434 0
0.022552 -5.34273e-06 0
0.0219886 -0.000560648 0
0.0223106 -0.000263326 0
0.0215762 -0.000979444 0
0.0225532 -4.02535e-05 0
0.0217647 -0.000831944 0
0.0222062 -0.000419472 0
0.0225545 -7.52426e-05 0
0.0219114 -0.000722829 0
0.0214655 -0.0011857 0
0.0214799 -0.00119474 0
0.0225565 -0.000124196 0
0.0224486 -0.000250906 0
0.0211152 -0.00155688 0
0.0214942 -0.00120384 0
0.0215152 -0.0012174 0
0.0225585 -0.000173378 0
0.0223287 -0.000432489 0
0.0216974 -0.00106434 0
0.0215361 -0.00123111 0
0.0218724 -0.000919094 0
0.0221186 -0.000690741 0
0.021566 -0.00125125 0
0.0208326 -0.00187803 0
0.0225615 -0.000241717 0
0.0194349 -0.00245769 0
0.0215956 -0.0012717 0
0.0225646 -0.000310526 0
0.0216371 -0.00130137 0
0.0213558 -0.00156858 0
0.00688783 -0.0013051 0
0.0223472 -0.00060379 0
0.0205179 -0.00216595 0
0.0219735 -0.00101037 0
0.0226636 -0.00021741 0
0.0224673 -0.000505829 0
0.0216779 -0.00133166 0
0.0225692 -0.000405127 0
0.0218532 -0.00118928 0
0.0226646 -0.000256906 0
0.0124956 -0.00217741 0
0.0217338 -0.0013751 0
0.0226661 -0.000310878 0
0.0222676 -0.000868957 0
0.022574 -0.000500543 0
0.0221658 -0.000979666 0
0.0226682 -0.000385478 0
0.0212305 -0.00190207 0
0.0217882 -0.00141971 0
0.0215916 -0.00161147 0
0.0223713 -0.000829108 0
0.0220972 -0.00113729 0
0.0216174 -0.00163066 0
0.0225807 -0.000629945 0
0.0226713 -0.000488935 0
0.0216548 -0.00165943 0
0.0218605 -0.00148293 0
0.0224937 -0.000850911 0
0.0220429 -0.00137192 0
0.0217081 -0.00170209 0
0.0205999 -0.00243309 0
0.0225876 -0.00076057 0
0.0219299 -0.00154825 0
0.0223946 -0.00105664 0
0.0226758 -0.00063203 0
0.0222093 -0.00127055 0
0.0195449 -0.00277949 0
0.0227287 -0.000530705 0
0.0217817 -0.0017648 0
0.0227292 -0.000552546 0
0.0227297 -0.000574297 0
0.0227303 -0.000603554 0
0.0225967 -0.000934851 0
0.0200896 -0.00271345 0
0.0209929 -0.00241242 0
0.0220189 -0.0016397 0
0.022731 -0.000632743 0
0.0213235 -0.00224961 0
0.0226822 -0.000828505 0
0.0227318 -0.000672538 0
0.0218802 -0.00185629 0
0.0227327 -0.000712311 0
0.0216921 -0.00203898 0
0.0217037 -0.00204902 0
0.0217153 -0.00205913 0
0.0224226 -0.00134933 0
0.0223379 -0.00145254 0
0.0227339 -0.000766781 0
0.0226057 -0.00111071 0
0.0221024 -0.00173473 0
0.0217322 -0.00207413 0
0.021749 -0.00208925 0
0.0227351 -0.000821313 0
0.0206658 -0.00270241 0
0.0222572 -0.00163628 0
0.0225266 -0.00130829 0
0.0217731 -0.00211138 0
0.0227367 -0.000895828 0
0.0217969 -0.00213377 0
0.0226908 -0.00109525 0
0.0220066 -0.00198891 0
0.0218302 -0.00216609 0
0.0227383 -0.000970544 0
0.0222044 -0.00186595 0
0.0215659 -0.00241413 0
0.0226168 -0.00134096 0
0.021863 -0.00219892 0
0 0 0
0.0224474 -0.00164375 0
0.0227404 -0.0010719 0
0.0219077 -0.00224572 0
0.0196242 -0.00310595 0
0.022747 -0.000935536 0
0.0165244 -0.00303244 0
0.0227423 -0.00117365 0
0.0214072 -0.00266438 0
0.0219512 -0.00229347 0
0.0227479 -0.000984642 0
0.0222968 -0.0020029 0
0.0125511 -0.00236877 0
0.0226268 -0.00157286 0
0.0227491 -0.00104903 0
0.0207185 -0.00298746 0
0.0221601 -0.00217983 0
0.0227009 -0.00145201 0
0.0220089 -0.00236069 0
0.0227447 -0.00131015 0
0.0217804 -0.00255323 0
0.0227505 -0.00113506 0
0.0218009 -0.00257429 0
0.0218307 -0.00260573 0
0.0220642 -0.00242967 0
0.0224729 -0.00201356 0
0.0227468 -0.00144729 0
0.0225604 -0.00189976 0
0.0227522 -0.00125112 0
0.0211064 -0.0030246 0
0.0218729 -0.00265208 0
0.0224022 -0.00218905 0
0.0226373 -0.00187014 0
0.0221348 -0.00252553 0
0.0227541 -0.00140803 0
0.022749 -0.00162863 0
0.0219311 -0.00271969 0
0.0223323 -0.00245244 0
0.0207548 -0.00327377 0
0.0202059 -0.00335708 0
0.0214622 -0.00308003 0
0.02271 -0.00192025 0
0.0222007 -0.00262447 0
0.0196774 -0.00343702 0
0.0227059 -0.00136321 0
0.0220085 -0.00281736 0
0.0227504 -0.0018108 0
0.0227064 -0.00139089 0
0.0227558 -0.00161933 0
0.0224912 -0.00238382 0
0.0227068 -0.00141845 0
0.0226447 -0.00216857 0
0.0227073 -0.00145392 0
0.0227077 -0.00148928 0
0.0227083 -0.00153576 0
0.0218342 -0.00306664 0
0.0222809 -0.00276016 0
0.0218433 -0.00307756 0
0.0218524 -0.00308853 0
0.0227088 -0.00158214 0
0.0218656 -0.00310479 0
0.0221072 -0.00295729 0
0.022751 -0.00204757 0
0.0218788 -0.00312115 0
0.0227093 -0.00164386 0
0.0218976 -0.00314503 0
0.0227564 -0.00190136 0
0.0227098 -0.0017055 0
0.0219162 -0.00316911 0
0.0219422 -0.00320378 0
0.0207757 -0.00357822 0
0.0223528 -0.00290089 0
0.0227102 -0.00178785 0
0.0225815 -0.0026438 0
0.0226487 -0.00254241 0
0.0219676 -0.00323886 0
0.0227499 -0.00228511 0
0.0227105 -0.00187017 0
0.0225026 -0.00283734 0
0.0216762 -0.00342376 0
0.0220022 -0.00328865 0
0.0227115 -0.00252107 0
0.0222258 -0.0031562 0
0.0227105 -0.00197984 0
0.0214936 -0.00356697 0
0.0220358 -0.00333922 0
0.0197008 -0.00377108 0
0.0227537 -0.00227294 0
0.0125635 -0.00255626 0
0.0227102 -0.00208955 0
0.0224338 -0.00309108 0
0.0211541 -0.00372309 0
0.0220801 -0.00341004 0
0.0227457 -0.00258784 0
0.0225834 -0.00190594 0
0.0226463 -0.00291603 0
0.0227092 -0.00223459 0
0.0225843 -0.00196926 0
0.0221222 -0.00348231 0
0.0207795 -0.0038831 0
0.0225851 -0.00204847 0
0.0218555 -0.0036681 0
0.0218714 -0.00369072 0
0.0227075 -0.00237969 0
0.0225009 -0.00328906 0
0.0223564 -0.00343663 0
0.0225859 -0.00215003 0
0.0218944 -0.00372439 0
0.0221757 -0.00358218 0
0.0227381 -0.00289074 0
0.0219269 -0.00377382 0
0.0202314 -0.00401462 0
0.0227437 -0.00275432 0
0.0225863 -0.00228243 0
0.0227042 -0.00256929 0
0.0222252 -0.00368462 0
0.0219714 -0.00384552 0
0.016533 -0.00360819 0
0.0226335 -0.00337262 0
0.0214889 -0.00405246 0
0.0225859 -0.00245642 0
0.0226927 -0.00327217 0
0.0196987 -0.00410808 0
0.0226998 -0.0027589 0
0.0225662 -0.00355216 0
0.0220302 -0.00394836 0
0.0222846 -0.00382425 0
0.0207651 -0.00420854 0
0.0227233 -0.00326838 0
0.0225837 -0.00268522 0
0 0 0
0.0226921 -0.00300293 0
0.0224804 -0.003828 0
0.0223928 -0.00247995 0
0.0221042 -0.0040944 0
0.0223369 -0.0039682 0
0.0223931 -0.00251618 0
0.0223935 -0.00255227 0
0.00689344 -0.00147802 0
0.0218328 -0.00426452 0
0.0223938 -0.00259647 0
0.0227189 -0.00336516 0
0.0218397 -0.00427614 0
0.0218466 -0.0042878 0
0.022394 -0.00264052 0
0.0226091 -0.00382655 0
0.0218568 -0.00430505 0
0.022578 -0.00298449 0
0.0226823 -0.00324666 0
0.0223942 -0.00269597 0
0.0218668 -0.00432238 0
0.0227023 -0.00364474 0
0.0218811 -0.00434764 0
0.0223943 -0.00275125 0
0.0218952 -0.00437307 0
0.0223942 -0.00416159 0
0.0223942 -0.00282216 0
0.0221913 -0.00429985 0
0.0219149 -0.00440958 0
0.0211122 -0.00451343 0
0.0125255 -0.00276264 0
0.022394 -0.00289289 0
0.0207327 -0.00453354 0
0.0219341 -0.00444642 0
0.0196687 -0.0044463 0
0.0223934 -0.00298459 0
0.02196 -0.00449855 0
0.0226665 -0.00355475 0
0.0214439 -0.00460907 0
0.0216306 -0.00459217 0
0.0223924 -0.00307608 0
0.0219851 -0.00455132 0
0.0225655 -0.00337189 0
0.0224395 -0.00436178 0
0.0223907 -0.00319508 0
0.0226323 -0.00418424 0
0.0220178 -0.00462491 0
0.0226676 -0.00410287 0
0.0201697 -0.00468184 0
0.0222839 -0.00458624 0
0.0225639 -0.00436696 0
0.0223884 -0.0033138 0
0.0220487 -0.0046997 0
0.022647 -0.00386173 0
0.0226665 -0.00412162 0
0.0223846 -0.00346777 0
0.0220874 -0.00480254 0
0.0224798 -0.00462643 0
0.0206784 -0.00488117 0
0.0220854 -0.00319287 0
0.022541 -0.00386602 0
0.0217555 -0.00494389 0
0.0223799 -0.00362131 0
0.0220861 -0.00327657 0
0.0217676 -0.00496764 0
0.0221227 -0.00490751 0
0.0217851 -0.00500292 0
0.0196144 -0.00478592 0
0.0220866 -0.00337623 0
0.0226173 -0.00424186 0
0.0226224 -0.00455716 0
0.0218096 -0.00505457 0
0.0223725 -0.0038188 0
0.0220867 -0.00349824 0
0.022164 -0.00504981 0
0.0223647 -0.00498138 0
0.021843 -0.00512919 0
0.0213562 -0.00516062 0
0.0225008 -0.00490108 0
0.0220858 -0.0036509 0
0.0223635 -0.00401559 0
0.0218865 -0.00523566 0
0.0221991 -0.0051957 0
0.0225814 -0.00461931 0
0.0220834 -0.00384463 0
0.0206054 -0.00522728 0
0.0224963 -0.0044845 0
0.0223498 -0.00426561 0
0.0219403 -0.00538579 0
0.0124427 -0.00295559 0
0.0163925 -0.0042026 0
0.0225542 -0.00509616 0
0.0222356 -0.0053906 0
0.0209534 -0.00539594 0
0.0220779 -0.00409206 0
0.0225674 -0.00503288 0
0.0225002 -0.00525752 0
0.0195349 -0.00512481 0
0.0223335 -0.00451434 0
0.0220017 -0.00559521 0
0.022529 -0.00507614 0
0.0216261 -0.00561174 0
0.0217056 -0.0039448 0
0.0216314 -0.00562382 0
0.0216366 -0.00563593 0
0.0222617 -0.00559123 0
0.0200249 -0.00535487 0
0.0217059 -0.00399297 0
0.0224033 -0.00551974 0
0.0216443 -0.00565385 0
0.0220671 -0.00440786 0
0.0216518 -0.00567182 0
0.0217062 -0.00404102 0
0.0216627 -0.00569799 0
0.0217063 -0.00409699 0
0.0216733 -0.00572428 0
0.0223095 -0.0048254 0
0.0217062 -0.00415281 0
0.0216881 -0.00576198 0
0.021706 -0.00421975 0
0.0217025 -0.00579993 0
0.0205059 -0.00559737 0
0.0217056 -0.0042865 0
0.0212114 -0.00577742 0
0.0224704 -0.00562754 0
0.0217218 -0.00585351 0
0.0224187 -0.00524134 0
0.0217049 -0.00436847 0
0.022063 -0.00588431 0
0.0217402 -0.0059076 0
0.0222798 -0.005855 0
0.0220473 -0.00480827 0
0.0217039 -0.00445021 0
0.0222816 -0.00513412 0
0.0224672 -0.00552764 0
0.0213732 -0.00589785 0
0 0 0
0.0217641 -0.0059828 0
0.0217022 -0.00455228 0
0.0194327 -0.00546355 0
0.0217864 -0.00605896 0
0.0217001 -0.00465402 0
0.0216968 -0.0047823 0
0.0218137 -0.00616328 0
0.0222811 -0.00612729 0
0.0222415 -0.00551299 0
0.0216928 -0.0049101 0
0.0220128 -0.00530992 0
0.0218381 -0.0062693 0
0.0221084 -0.00627897 0
0.0223957 -0.00609766 0
0.0203872 -0.0059644 0
0.0216868 -0.00507168 0
0.0223805 -0.0060607 0
0.0223519 -0.00624111 0
0.0123058 -0.00316988 0
0.0218655 -0.00641236 0
0.021423 -0.0063495 0
0.0216797 -0.00523252 0
0.0214324 -0.0063739 0
0.0221953 -0.00588776 0
0.021446 -0.00641007 0
0.02118 -0.0048546 0
0.0222594 -0.00647888 0
0.0222911 -0.00614368 0
0.0214648 -0.00646293 0
0.0218877 -0.00655833 0
0.0216692 -0.0054352 0
0.0211807 -0.00496579 0
0.0210196 -0.00638345 0
0.0193084 -0.00579944 0
0.0214901 -0.00653906 0
0.0211808 -0.00509211 0
0.0198007 -0.00602966 0
0.021955 -0.00592817 0
0.0206504 -0.00636277 0
0.021657 -0.00563669 0
0.0215228 -0.00664721 0
0.0219083 -0.00675232 0
0.02118 -0.00523952 0
0.0222803 -0.00658461 0