# vtk DataFile Version 3.0
File generated from DClib
ASCII

DATASET UNSTRUCTURED_GRID
POINTS 922 float
50 0 0 
50 1.66667 0 
47.9167 0 0 
50 3.33333 0 
45.8333 0 0 
50 5 0 
43.75 0 0 
50 6.66667 0 
43 2 0 
41.6667 0 0 
50 8.33333 0 
43 4.66667 0 
50 10 0 
43 7.33333 0 
39.7917 2 0 
39.5833 0 0 
43 10 0 
37.5 0 0 
36.5833 2 0 
36 4 0 
35.4167 0 0 
36 5 0 
36 6 0 
34.875 4 0 
36 7 0 
36 8 0 
36 9 0 
33.3333 0 0 
33.75 4 0 
33.375 2 0 
36 10 0 
32.625 4 0 
33 6 0 
33 7.38776 0 
31.25 0 0 
31.5 4 0 
33 8.72989 0 
31.25 6 0 
33 10 0 
30.1667 2 0 
30.375 4 0 
29.1667 0 0 
29.25 4 0 
29.5 6 0 
30 8 0 
30 8.38776 0 
30 8.77551 0 
30 9.11765 0 
29.375 8 0 
30 9.45978 0 
28.125 4 0 
30 9.72989 0 
29.5436 8.77551 0 
29.7872 9.45978 0 
30 10 0 
29.9616 10.0384 0 
29.9232 10.0768 0 
29.8781 10 0 
29.7038 9.72989 0 
29.5732 9.45978 0 
29.8635 10.1365 0 
29.8013 10.0768 0 
29.7562 10 0 
29.3407 9.11765 0 
29.8038 10.1962 0 
29.7179 10.0384 0 
29.0879 8.77551 0 
29.6796 10.0768 0 
28.75 8 0 
29.5896 10 0 
29.682 10.1962 0 
29.3212 9.45978 0 
29.7137 10.2863 0 
28.8513 8.38776 0 
29.62 10.1365 0 
29.5133 10.0768 0 
29.5605 10.1962 0 
29.318 9.72989 0 
29.6237 10.3763 0 
29.423 10 0 
27.0833 0 0 
29.3851 10.0384 0 
29.4708 10.2863 0 
29.0681 9.45978 0 
29.5022 10.3763 0 
29.3471 10.0768 0 
29.3947 10.1962 0 
29.4922 10.5078 0 
27.75 6 0 
29.2882 10.1365 0 
29.2009 10 0 
29.3811 10.3763 0 
28.6181 8.77551 0 
26.9583 2 0 
29.2293 10.1962 0 
29.1257 10.0768 0 
29.3606 10.6394 0 
29.2162 10.3763 0 
28.6273 9.11765 0 
28.7679 9.45978 0 
29.1405 10.2863 0 
29.25 10.5078 0 
28.9787 10 0 
28.125 8 0 
28.8217 9.72989 0 
29.2395 10.6394 0 
28.9416 10.0384 0 
29.009 10.1962 0 
27 4 0 
29.0518 10.3763 0 
28.9045 10.0768 0 
29.119 10.6394 0 
28.8468 10.1365 0 
29.1744 10.8256 0 
28.4666 9.45978 0 
28.7892 10.1962 0 
28.69 10 0 
28.1489 8.77551 0 
28.9223 10.5078 0 
28.8333 10.3763 0 
28.9555 10.6394 0 
28.617 10.0768 0 
28.7024 10.2863 0 
28.9337 10.8256 0 
28.9882 11.0118 0 
28.7928 10.6394 0 
28.6156 10.3763 0 
28.5038 10.1962 0 
28.4012 10 0 
27.6992 8.38776 0 
28.8679 11.0118 0 
28.1088 9.45978 0 
28.3655 10.0384 0 
28.1935 9.72989 0 
27.5 8 0 
28.3298 10.0768 0 
28.5771 10.6394 0 
28.7485 11.0118 0 
28.489 10.5078 0 
27.8468 9.11765 0 
28.6098 10.8256 0 
28.2744 10.1365 0 
27.6621 8.77551 0 
28.3334 10.3763 0 
28.219 10.1962 0 
28.7333 11.2667 0 
28.5871 11.0118 0 
28.3626 10.6394 0 
28.0354 10 0 
28.1356 10.2863 0 
27.75 9.45978 0 
28.427 11.0118 0 
27.9662 10.0768 0 
28.0523 10.3763 0 
28.4949 11.2667 0 
28.184 10.8256 0 
28.0852 10.6394 0 
27.8587 10.1962 0 
28.2155 11.0118 0 
28.4783 11.5217 0 
27.9307 10.5078 0 
27.1759 8.77551 0 
25.875 4 0 
27.6697 10 0 
26.875 8 0 
27.6363 10.0384 0 
28.3594 11.5217 0 
27.6029 10.0768 0 
28.177 11.2667 0 
27.3262 9.45978 0 
27.4134 9.72989 0 
28.0057 11.0118 0 
27.6971 10.3763 0 
27.8094 10.6394 0 
28.2416 11.5217 0 
27.551 10.1365 0 
27.4992 10.1962 0 
26 6 0 
26.9863 9.11765 0 
28.0837 11.5217 0 
27.4211 10.2863 0 
27.7352 11.0118 0 
27.638 10.8256 0 
28.141 11.859 0 
27.2186 10 0 
27.9274 11.5217 0 
26.5417 8.38776 0 
27.3432 10.3763 0 
27.4616 10.6394 0 
26.6684 8.77551 0 
27.7621 11.2667 0 
26.9013 9.45978 0 
27.155 10.0768 0 
25 0 0 
26.25 8 0 
27.9066 11.859 0 
27.2294 10.5078 0 
27.467 11.0118 0 
27.7222 11.5217 0 
27.0563 10.1962 0 
27.1158 10.6394 0 
27.5191 11.5217 0 
26.7674 10 0 
26.9078 10.3763 0 
27.8036 12.1964 0 
26.7374 10.0384 0 
27.5976 11.859 0 
26.7074 10.0768 0 
27.1297 11.0118 0 
27.2334 11.2667 0 
26.1616 8.77551 0 
26.4044 9.45978 0 
27.6871 12.1964 0 
26.6608 10.1365 0 
26.9553 10.8256 0 
26.4658 9.72989 0 
27.2584 11.5217 0 
26.6142 10.1962 0 
27.5718 12.1964 0 
24.75 4 0 
26.544 10.2863 0 
26.6911 10.6394 0 
26.0333 9.11765 0 
25.625 8 0 
27.4193 12.1964 0 
26.7951 11.0118 0 
27.1983 11.859 0 
26.4737 10.3763 0 
27.0006 11.5217 0 
26.2261 10 0 
27.2684 12.1964 0 
26.3711 10.5078 0 
26.1706 10.0768 0 
25.9068 9.45978 0 
25.6301 8.77551 0 
27.3729 12.6271 0 
27.0723 12.1964 0 
26.5764 11.2667 0 
26.0842 10.1962 0 
26.2685 10.6394 0 
25.377 8.38776 0 
26.6777 11.5217 0 
26.3853 11.0118 0 
27.1446 12.6271 0 
26.8784 12.1964 0 
26.6935 11.859 0 
25.9539 10.3763 0 
26.1234 10.8256 0 
25 8 0 
25.6847 10 0 
26.3582 11.5217 0 
23.75 2 0 
25.6594 10.0384 0 
26.6314 12.1964 0 
25.634 10.0768 0 
26.8487 12.6271 0 
25.0992 8.77551 0 
25.3333 9.45978 0 
25.9784 11.0118 0 
25.5945 10.1365 0 
24.25 6 0 
25.7632 10.6394 0 
25.5549 10.1962 0 
26.9422 13.0578 0 
25.3422 9.72989 0 
25.4952 10.2863 0 
26.3874 12.1964 0 
26.8294 13.0578 0 
24.9782 9.11765 0 
25.968 11.5217 0 
25.4353 10.3763 0 
23.625 4 0 
26.7177 13.0578 0 
26.4709 12.6271 0 
26.0703 11.859 0 
25.7799 11.2667 0 
25.3477 10.5078 0 
26.5729 13.0578 0 
24.375 8 0 
26.0835 12.1964 0 
25.4927 11.0118 0 
25.0532 10 0 
24.5409 8.77551 0 
25.2597 10.6394 0 
26.4296 13.0578 0 
25.0081 10.0768 0 
24.7595 9.45978 0 
25.5816 11.5217 0 
24.9377 10.1962 0 
22.9167 0 0 
26.246 13.0578 0 
25.7833 12.1964 0 
25.1349 10.8256 0 
25.9977 12.6271 0 
24.2034 8.38776 0 
26.412 13.588 0 
24.831 10.3763 0 
26.0644 13.0578 0 
25.0097 11.0118 0 
25.3193 11.859 0 
26.1925 13.588 0 
25.1215 11.5217 0 
25.4183 12.1964 0 
23.75 8 0 
23.983 8.77551 0 
24.4216 10 0 
25.8356 13.0578 0 
24.6735 10.6394 0 
24.402 10.0384 0 
24.3824 10.0768 0 
24.1101 9.45978 0 
24.8375 11.2667 0 
24.3517 10.1365 0 
24.3209 10.1962 0 
25.4179 12.6271 0 
25.9145 13.588 0 
25.6093 13.0578 0 
24.2742 10.2863 0 
24.0443 9.72989 0 
23.8155 9.11765 0 
25.0573 12.1964 0 
24.2272 10.3763 0 
22.5 4 0 
24.4478 11.0118 0 
24.6646 11.5217 0 
24.158 10.5078 0 
25.3298 13.0578 0 
25.8819 14.1181 0 
25.5653 13.588 0 
24.0881 10.6394 0 
23.3961 8.77551 0 
25.7745 14.1181 0 
23.125 8 0 
23.7058 10 0 
25.6676 14.1181 0 
22.5 6 0 
24.6289 12.1964 0 
25.0535 13.0578 0 
23.9883 10.8256 0 
23.461 9.45978 0 
24.4349 11.859 0 
23.6731 10.0768 0 
25.5335 14.1181 0 
23.019 8.38776 0 
24.7229 12.6271 0 
23.6216 10.1962 0 
24.1341 11.5217 0 
25.1327 13.588 0 
23.8872 11.0118 0 
25.4 14.1181 0 
23.5426 10.3763 0 
24.7194 13.0578 0 
25.233 14.1181 0 
24.204 12.1964 0 
23.7472 11.2667 0 
22.8093 8.77551 0 
23.4243 10.6394 0 
22.5 8 0 
25.0671 14.1181 0 
24.3887 13.0578 0 
23.6052 11.5217 0 
24.6061 13.588 0 
22.9901 10 0 
25.2539 14.7461 0 
22.9769 10.0384 0 
24.8614 14.1181 0 
22.7421 9.45978 0 
22.9637 10.0768 0 
22.9429 10.1365 0 
21.375 4 0 
23.2515 11.0118 0 
22.5457 9.11765 0 
22.922 10.1962 0 
23.7117 12.1964 0 
25.046 14.7461 0 
23.9078 12.6271 0 
22.8899 10.2863 0 
24.6571 14.1181 0 
22.8574 10.3763 0 
22.5862 9.72989 0 
23.998 13.0578 0 
23.4145 11.859 0 
22.8089 10.5078 0 
22.1933 8.77551 0 
20.8333 0 0 
24.791 14.7461 0 
24.4076 14.1181 0 
21.875 8 0 
22.7595 10.6394 0 
23.0055 11.5217 0 
23.9777 13.588 0 
22.6878 10.8256 0 
21.822 8.38776 0 
23.2211 12.1964 0 
23.6104 13.0578 0 
24.1597 14.1181 0 
24.4776 14.7461 0 
22.6143 11.0118 0 
20.5417 2 0 
22.0242 9.45978 0 
22.2027 10 0 
22.1829 10.0768 0 
22.1513 10.1962 0 
24.6259 15.3741 0 
23.8624 14.1181 0 
22.5107 11.2667 0 
21.5771 8.77551 0 
24.5253 15.3741 0 
22.1017 10.3763 0 
24.0946 14.7461 0 
22.9704 12.6271 0 
24.4245 15.3741 0 
21.25 8 0 
23.1626 13.0578 0 
20.75 6 0 
22.404 11.5217 0 
22.0253 10.6394 0 
22.6655 12.1964 0 
24.3035 15.3741 0 
23.5669 14.1181 0 
23.2428 13.588 0 
20.25 4 0 
24.1821 15.3741 0 
22.2583 11.859 0 
21.9095 11.0118 0 
24.0354 15.3741 0 
23.6316 14.7461 0 
21.1769 9.11765 0 
22.7163 13.0578 0 
21.2482 9.45978 0 
23.2196 14.1181 0 
21.4154 10 0 
23.8883 15.3741 0 
21.4085 10.0384 0 
21.4016 10.0768 0 
21.3905 10.1365 0 
20.9332 8.77551 0 
21.3792 10.1962 0 
21.3616 10.2863 0 
22.108 12.1964 0 
20.625 8 0 
23.7106 15.3741 0 
21.3434 10.3763 0 
21.7377 11.5217 0 
21.3158 10.5078 0 
20.6106 8.38776 0 
22.874 14.1181 0 
20.9961 9.72989 0 
23.5323 15.3741 0 
21.2869 10.6394 0 
23.9109 16.0891 0 
23.0804 14.7461 0 
22.2122 13.0578 0 
21.2441 10.8256 0 
22.3997 13.588 0 
23.3184 15.3741 0 
21.91 12.6271 0 
23.7168 16.0891 0 
21.1989 11.0118 0 
22.4765 14.1181 0 
23.1037 15.3741 0 
20.2886 8.77551 0 
21.1336 11.2667 0 
20.4742 9.45978 0 
21.4902 12.1964 0 
23.4886 16.0891 0 
20 8 0 
20.5755 10 0 
20.5672 10.0768 0 
19.125 4 0 
21.0644 11.5217 0 
21.7064 13.0578 0 
20.5533 10.1962 0 
22.8492 15.3741 0 
20.5305 10.3763 0 
23.217 16.0891 0 
18.75 0 0 
22.4362 14.7461 0 
22.0799 14.1181 0 
20.9674 11.859 0 
20.493 10.6394 0 
22.5939 15.3741 0 
22.8917 16.0891 0 
20.4322 11.0118 0 
19 6 0 
20.8648 12.1964 0 
19.7252 9.11765 0 
21.4494 13.588 0 
19.6198 8.77551 0 
23.1959 16.8041 0 
19.375 8 0 
21.1471 13.0578 0 
22.2963 15.3741 0 
21.634 14.1181 0 
23.1028 16.8041 0 
19.3826 8.38776 0 
19.6592 9.45978 0 
23.0087 16.8041 0 
20.3354 11.5217 0 
22.5023 16.0891 0 
19.7357 10 0 
20.7266 12.6271 0 
22.9022 16.8041 0 
19.7337 10.0384 0 
19.7316 10.0768 0 
21.6986 14.7461 0 
19.7282 10.1365 0 
21.9981 15.3741 0 
19.7246 10.1962 0 
22.7943 16.8041 0 
19.7187 10.2863 0 
19.7123 10.3763 0 
19.7021 10.5078 0 
22.6703 16.8041 0 
21.1873 14.1181 0 
19.691 10.6394 0 
20.5814 13.0578 0 
22.5445 16.8041 0 
19.315 9.72989 0 
19.6735 10.8256 0 
20.1866 12.1964 0 
21.6575 15.3741 0 
18 4 0 
18.75 8 0 
22.04 16.0891 0 
18.9498 8.77551 0 
19.6542 11.0118 0 
22.3982 16.8041 0 
19.6249 11.2667 0 
22.2495 16.8041 0 
19.5925 11.5217 0 
20.6965 14.1181 0 
21.3165 15.3741 0 
18.8474 9.45978 0 
20.395 13.588 0 
22.076 16.8041 0 
20.8727 14.7461 0 
19.5453 11.859 0 
18.8678 10 0 
22.415 17.585 0 
18.8667 10.0768 0 
17.3333 2 0 
21.4999 16.0891 0 
21.8995 16.8041 0 
19.969 13.0578 0 
18.8645 10.1962 0 
18.8602 10.3763 0 
19.4934 12.1964 0 
18.125 8 0 
22.2346 17.585 0 
20.9365 15.3741 0 
18.8517 10.6394 0 
21.6943 16.8041 0 
18.261 8.77551 0 
18.1362 8.38776 0 
20.2023 14.1181 0 
22.0344 17.585 0 
18.8358 11.0118 0 
18.2149 9.11765 0 
19.4214 12.6271 0 
21.4858 16.8041 0 
20.5569 15.3741 0 
21.8073 17.585 0 
18.807 11.5217 0 
20.8831 16.0891 0 
17.25 6 0 
21.246 16.8041 0 
19.3437 13.0578 0 
16.6667 0 0 
18.0163 9.45978 0 
16.875 4 0 
[...]
POINT_DATA 922
SCALARS phi float 1
LOOKUP_TABLE default
-1.14267e+06
-15591.8
-673750
-19949.4
-388663
-20414.7
-266825
-23842.6
-1.23167e+06
-126224
-508850
-22342.9
-1.87456e+06
-12217.6
-497914
-59136.7
-1.42431e+06
-16559.6
-292560
-1.4052e+06
0
0
-524.846
-955717
-642.765
-874.053
-356396
0
-660161
-171979
-1.04835e+06
-728336
-6620.25
-16442.8
0
-551534
-142303
-49799.4
-680210
-114823
-621555
-219.709
-490725
-59921.4
-5731.82
-8713.2
-17338.8
-2.59028
-28506.5
-546.233
-576239
-11478.1
-64565.3
-77824.2
-33108.5
-593944
0
-96922.8
-102084
-44705.8
-185384
0
-307195
-66028.9
-65847.3
-124165
-68376.7
-13221.2
-41405.2
-186295
-127025
-35098.9
-228905
-110955
-1288.26
0
-19950.8
-59781
-250044
-140751
-1541.45
-12729
-128396
-36127.2
-198487
-16486.3
-24775.6
-413396
-83328.9
0
-92284
-53320.2
-69577.4
-107615
0
-845.898
-250493
-130714
-69929.8
-36384.9
-31022.8
-155595
-73461
-47912.2
-53878.1
-216801
0
0
-479774
-34032
-59.26
-128811
-217.086
-379112
-51570.2
-1373.05
-69368
-76862.7
-89499.8
-55329.3
-96235.4
-33.2353
0
-197359
-244262
-25319.5
0
0
-84501.9
-117739
-200780
-50630.2
-537.786
-73900.3
-57625
-456.759
-155932
-109727
-72204.1
-81977.8
-83795.6
-768.649
-75401.8
-4506.95
-467.517
-303429
-94292
-80598.1
-85277.7
-655.579
-68639.1
-67448.3
-466.08
0
-174304
-118861
-98294.7
-832.546
-79999.6
-182758
-9160.38
-80718.9
-570142
-126371
-63645.4
-492.335
-178893
-455.872
-118002
-66375.3
-104926
-28047.9
-1548.38
-19979.3
-124932
-1091.26
-1075.4
-104512
-93375.7
-117443
-2520.3
-260396
-146729
-241215
-124271
-76655.1
-113658
-2459.9
-16525
-76409.2
-67116.2
-86964.5
-397.497
-18627.6
-68885.2
-176816
-5610.81
-211037
-65797.1
-1023.63
-4777.44
-47353.3
-174959
-2334.94
-165392
-230.287
-129370
-222.141
-155952
-248994
-79237
-82067.6
-177870
-667.793
-23609.8
-136544
-143962
-637.922
-128506
-483630
-1759.93
-4928.26
-100684
-71569.6
-141582
-34566.5
-102771
-1690.84
-90713.5
-165711
-105357
-4275.2
-167.188
-102034
-72367.4
-227073
-109490
-213613
-583.738
-4288.16
-101017
-441220
-22371.9
-192563
-78167.7
-107310
-1637.53
-9848.41
-72427.5
-212892
-375119
-161206
-25.6814
-71032.7
-23.7839
-162860
-72512.7
-93478.5
-9852.82
-240.42
-107926
-4120.55
-228.722
-176574
-157986
-884.312
-50018.6
-203378
-101640
-190009
-864.597
-555602
-156281
-132819
-503710
-30276.8
-2463.36
-179609
-72393.4
-367687
-8941.05
-195171
-64251.5
-2389.81
-137034
0
-108612
-35095.3
-161.277
-119386
-155311
-356538
-6234.82
-119317
-83389.5
-250561
-787.021
-114463
-6078.21
-214184
-232246
-23197.6
-640623
-67807.7
-61921.3
-228209
-127225
-2442.17
-18.3895
-19.3407
-96172.7
-13916.7
0
0
-252173
-210679
-101382
-235.635
-160752
-94827.8
-397286
-224.514
-452124
-6019.29
-14308
-1134.66
-94871.9
-214835
-185381
-1108.54
-53297.6
-257861
-62949.6
-199790
-204457
-77942.5
-168035
-58489.6
-3342.83
-102555
-32649.2
-74.9613
-242849
-64140.9
-765389
0
-13466.4
-159917
-3258.16
-189953
-147.264
-760376
-220691
-32906
-7789.51
-48986.7
-988.836
-53306
-168990
-900413
-7473.49
-128628
-207421
-308614
-348.091
-190908
-86353.3
-347.077
-101.424
-532530
-3310.57
-79237
-104.376
-25545
-295838
-151364
0
-137056
0
-137821
-714282
-17233.1
-251.279
-40513.8
-258961
-274712
-145856
-42572.2
-245.29
-8239.17
-570774
-1486.77
-44413.7
-17681.1
-249355
-122371
-245567
-1486.88
-341489
-81796.3
-169162
-492.336
-187.78
-281185
-214811
-4597.8
-34556.3
-340361
0
-209672
-33654.1
-270530
-30699.7
-108448
-31498.3
-4572.07
-188.025
-17156.4
-322189
-154861
-774958
-436319
-251897
-9983.22
-1396.27
-294046
-180213
-55537.2
-32015.6
-63354.8
-1.13529e+06
-149609
-225276
-973.692
-972.331
-559.507
-26701.9
-561.15
-159.242
-9228.59
-19871
-257009
-159.441
-4435.58
0
-25578.5
-1.24098e+06
-91791.4
-193238
0
-378720
-160175
-29362.8
-405.338
-89366.8
-213812
-18489.9
-366795
-401.186
-568345
-145832
-19793.1
-2079.5
-50039.6
-9850.23
-342823
-10101
-108994
-1134.07
-644085
-2016.74
-17742.9
-666.073
-133152
-199.985
-308111
-638022
-916461
-110704
-5747.27
0
-112805
-264250
-406.164
-3646.25
-5536.41
-28630.7
-30423.8
-13443.9
-352158
-3834.05
-17932.7
-544550
-60018.7
-428356
-10404.5
-33477
-342119
-2143.3
-210499
-74737.5
-11305.1
-408369
-1605.44
-1611.34
-402129
-1089.83
-488131
-1095.56
-320272
-519.503
-524.027
-59.4532
-375472
-27307.7
-62.1115
-10269.9
-289165
-40253.8
-34.723
-5671.87
-943595
-621703
-48.7974
-174794
-7330.63
-28.6383
-330105
-930.228
-246897
-884.761
-26409.2
-682038
-18873.2
-17057
-272060
-46726.4
-3174.69
-44846.7
-447006
-1709.62
-737210
-224557
-196108
-10270
-1120.61
-492.616
-2925.22
-53.0983
-438866
-238102
-27.6388
-205151
-3536.28
-1531.15
-14780.5
-411369
-84.0464
-7388.89
-6581.48
-135744
-40737
-364748
-1123.64
-715408
-2862.07
-108336
-5681.35
-859901
-9094.8
-1.0494e+06
-301177
-13863.6
-20795.1
-3829
-27045
-22768.2
-1724.28
-3391.73
-1732.83
-1043.28
-30863.9
-1055.89
-447.157
-367.223
-9454.37
-382.528
0
-225139
0
-535968
-305.637
-437898
-9928.58
-260.373
-542576
-94633.1
-168.238
-331.648
-1931.93
-6158.02
-438419
-7401.26
-16289.3
-662762
-2615.29
-1734.51
-520516
-141750
-9386
-6553.2
-403148
-5151.66
-2843.32
0
-460048
-1443.7
0
-11479.7
-4539.09
-398907
-892.223
-341789
0
-3333.19
-10028.2
-13969.7
-8986.24
-371794
-11447.1
-9207.11
-12692.3
-16588
-7248.33
-262031
-1.07712e+06
-22867.4
-18539.3
-121393
0
-25365.4
-7573.09
-267164
-38852.4
-20954.2
-310.645
-19258.8
-173582
-6895.27
-38101
-11272.5
-215125
-48812.2
-155899
-3268.28
-52841.2
-427164
-47613.8
-81200.9
-75.8742
-15554.9
-7876.35
-23943.7
-29513.5
-9229.4
-375439
-11447.5
-61049.6
-32836.6
-5405.45
-1391.36
-32215.5
-6958.59
-319726
-51134.1
-166468
0
-8659.52
0
-29276.2
-2064.47
-8403.98
-47990.4
-254752
-61022.3
-23934.5
-1.5492e+06
-2127.24
-8132.32
-25736.2
-4423.27
-178687
-13557.6
-6522.93
-47748.9
-1.74714e+06
-58244
-3494.43
-12553.5
-25666.5
-24333.8
-92857.6
-126109
-29537.2
-52183.2
-3201.58
-2294.73
-1660.44
-44913.3
-44811.5
-15991.5
-59572.2
-196727
-1.34907e+06
-27126.3
-37617.5
-43869.6
-43881.3
-298030
-104935
0
-32579.1
-2896.55
-338085
-49384.9
-375.973
-59309.5
-250003
-33191.5
-40230.1
-277897
-52019
-28067.6
-52222.7
-199874
-21813
-73252
-2715.31
-210920
-10149.1
-142011
-64059.6
-21719
0
-28758.3
-133424
-28255.2
-76129.9
-1296.58
-13568.2
-262342
-51639.4
-51463.9
-8080.7
-39967.2
-1.73217e+06
-71392.7
-14832.7
-12804.2
0
-58055.6
0
-31882.9
-159356
-8100.21
-30.6765
-7417.11
-130385
-43305.4
-13173.8
-383864
-6462.29
-570154
-30915
-24037.7
-558143
-28848.2
-45100.8
-3294.95
-2076.96
-5422.81
-271047
-15934.7
-26681.5
-2192.32
-436730
-31637.5
-348669
-30607.1
-1.6445e+06
-237286
-654.841
-91375.9
-31646.6
-49967.5
-88.5845
-15778
-22378.4
-22239.9
-25613.2
-2.64264e+06
-22089.9
0
-287.5
-14314.6
-22484.6
-1727.7
-34296.2
-845.628
-16988.6
-21097.9
-1828.5
-119565
-12737.4
-18454.7
-19382.6
-2625.08
-6005.6
-4312.72
-4713.65
-16816.3
-11937.3
-2.51218e+06
-5043.93
-23370
-3763.21
-2.10065e+06
-23094.5
-7260.23
-2844.3
-13287.7
-7471.91
-21761.6
-2.60618e+06
-10067.1
-2011.17
-9938.02
-18689.1
-1325.95
-3.61855e+06
-14340.7
-15075.4
-779.065
0
0
-3.29102e+06
-30214.6
-30479.1
-28800
-26834.4
-479.521
-25351
-2.50042e+06
-23450.8
-22008.8
-20156.4
-2071.69
-18836.1
-17131.6
-2.93021e+06
-15989.1
-4827.42
-14642.3
-13792.3
-12855.5
-9917.54
-7983.61
-5251.85
-3139.7
-1393.97
-3.7029e+06
-361.157
0
0
-383.727
-1442.67
-3340.75
-5956.17
-3.81377e+06
-10325
-3405.55
-2516.19
-3.38321e+06
-1726.79
-1056.38
-517.131
-162.399
0
0
-806.932
-4.87045e+06
-4943.38
-11841.6
-21500.6
-40246.2
-4.38073e+06
-5097.83
-4496.75
-3966.6
-3498.65
-3035.9
-2612.53
-2211.49
-1834.88
-1492.05
-1153.47
-868.009
-477.368
-313.473
-212.367
0
0
0
-677.162
-2739.05
-5553.89
-9381.33
-13958.6
-19745.7
-25632.2
-36140.6
-48305.5
VECTORS Displacement float
0 0 0
0 0.01364 0
0.0202071 0 0
0 0.0268666 0
0.0397593 0 0
0 0.0396772 0
0.0582905 0 0
0 0.0524188 0
0.0629483 0.014848 0
0.0760385 0 0
0 0.0688412 0
0.0590671 0.034836 0
0 0.0960306 0
0.056793 0.0545721 0
0.0898367 0.0131398 0
0.0928318 0 0
0.0538706 0.0895178 0
0.108481 0 0
0.113914 0.0112016 0
0.115269 0.0226886 0
0.122893 0 0
0.115027 0.0289681 0
0.113913 0.0358404 0
0.123631 0.0210535 0
0.112219 0.0429633 0
0.110681 0.0501417 0
0.108464 0.0615707 0
0.13561 0 0
0.131289 0.0193119 0
0.134624 0.00866873 0
0.105473 0.0782168 0
0.138563 0.0172151 0
0.136292 0.0294369 0
0.135029 0.0384835 0
0.146503 0 0
0.145126 0.0148838 0
0.132875 0.0511184 0
0.147655 0.0229527 0
0.12918 0.0757347 0
0.150693 0.00529248 0
0.150935 0.0122725 0
0.154894 0 0
0.155893 0.00933795 0
0.155789 0.0160973 0
0.154614 0.0264909 0
0.155045 0.0283025 0
0.155785 0.0302004 0
0.156805 0.033538 0
0.157573 0.022517 0
0.157966 0.0400738 0
0.159895 0.00610045 0
0.158859 0.0465648 0
0.158163 0.0268256 0
0.159187 0.0350682 0
0.159147 0.0546127 0
0.302428 0.131285 0
0.420318 0.181967 0
0.160474 0.0512747 0
0.160655 0.0377266 0
0.159991 0.0313362 0
0.437199 0.171712 0
0.359042 0.142876 0
0.161791 0.0472194 0
0.160251 0.0270122 0
0.435049 0.161391 0
0.229167 0.0806711 0
0.16021 0.0233717 0
0.302503 0.108571 0
0.159994 0.0183285 0
0.162768 0.0408115 0
0.42375 0.14335 0
0.160888 0.0283231 0
0.432177 0.152104 0
0.160339 0.0202783 0
0.356974 0.116726 0
0.239984 0.0722946 0
0.39846 0.122329 0
0.162202 0.0305075 0
0.425358 0.140089 0
0.163288 0.0358322 0
0.160485 0 0
0.181122 0.0441288 0
0.414949 0.115288 0
0.161733 0.0256855 0
0.420747 0.122115 0
0.202838 0.0519887 0
0.347333 0.0974701 0
0.419606 0.124769 0
0.161394 0.00805457 0
0.245295 0.0646145 0
0.163803 0.031306 0
0.417992 0.108312 0
0.162078 0.0197955 0
0.160477 0.000802658 0
0.290894 0.0747776 0
0.178844 0.0362191 0
0.411971 0.111164 0
0.402569 0.0948816 0
0.162751 0.020823 0
0.162724 0.0229467 0
0.33553 0.0773832 0
0.413417 0.0988882 0
0.16412 0.027656 0
0.162211 0.0140919 0
0.163349 0.0244157 0
0.409485 0.0990388 0
0.165759 0.0280711 0
0.229587 0.0482289 0
0.162837 0.00246379 0
0.372021 0.0791982 0
0.168626 0.0289448 0
0.406796 0.0889896 0
0.179163 0.0324085 0
0.403584 0.0958152 0
0.163603 0.0202067 0
0.193262 0.0360623 0
0.164419 0.0240636 0
0.163516 0.0160493 0
0.391869 0.0730906 0
0.315722 0.0617293 0
0.403215 0.0773599 0
0.165905 0.023962 0
0.22366 0.0427801 0
0.400222 0.0773303 0
0.394616 0.0822083 0
0.399553 0.0682762 0
0.257884 0.0474866 0
0.174276 0.0250166 0
0.164611 0.0205973 0
0.16397 0.0117701 0
0.393608 0.0740263 0
0.1644 0.0168982 0
0.164851 0.0203257 0
0.164598 0.018084 0
0.163936 0.00959727 0
0.165129 0.0200626 0
0.377472 0.0597997 0
0.392902 0.0672719 0
0.29877 0.0481435 0
0.164642 0.0140294 0
0.396146 0.0606605 0
0.165822 0.0197627 0
0.164574 0.0119904 0
0.205708 0.0284944 0
0.166976 0.0196323 0
0.385849 0.0679054 0
0.391752 0.0595976 0
0.3362 0.0479222 0
0.165095 0.0168789 0
0.171563 0.0202908 0
0.165024 0.0135285 0
0.390341 0.0528544 0
0.165284 0.016312 0
0.178574 0.0212765 0
0.384182 0.0558271 0
0.363966 0.04176 0
0.274027 0.0338627 0
0.165953 0.0155145 0
0.386528 0.0447413 0
0.377231 0.0556818 0
0.197439 0.0242324 0
0.165286 0.00780073 0
0.164551 -0.00142207 0
0.165436 0.0130977 0
0.165154 0.00486151 0
0.165518 0.0127598 0
0.376703 0.0504048 0
0.165588 0.0124131 0
0.382788 0.0432631 0
0.165508 0.00947954 0
0.165554 0.0104031 0
0.378981 0.0376829 0
0.169148 0.0144695 0
0.221099 0.025855 0
0.37622 0.0456675 0
0.165668 0.0118588 0
0.16575 0.0112894 0
0.164138 -0.00127153 0
0.165677 0.00619309 0
0.375696 0.0398946 0
0.165871 0.0104167 0
0.346189 0.0321095 0
0.256951 0.02555 0
0.367935 0.0426124 0
0.16568 0.00846093 0
0.375394 0.0346869 0
0.165571 0.00229029 0
0.166049 0.00954467 0
0.185 0.0131108 0
0.165685 0.003326 0
0.378476 0.0300742 0
0.165737 0.00535279 0
0.165668 0.00778289 0
0.162621 0 0
0.165768 -4.63496e-05 0
0.367152 0.0340634 0
0.167153 0.00846131 0
0.294217 0.0230743 0
0.374797 0.0284101 0
0.165644 0.00670702 0
0.169233 0.00757443 0
0.373873 0.0226475 0
0.165678 0.00375809 0
0.165621 0.00506673 0
0.358882 0.030957 0
0.165653 0.00341093 0
0.366431 0.0244658 0
0.165625 0.00306096 0
0.231851 0.0107404 0
0.328028 0.0150747 0
0.165745 -0.00122427 0
0.16573 0.000484879 0
0.358682 0.0271368 0
0.165581 0.00250877 0
0.177697 0.00732143 0
0.165685 0.000854625 0
0.366156 0.0161512 0
0.165524 0.00194721 0
0.358507 0.023583 0
0.164989 -0.00568091 0
0.165435 0.00107167 0
0.166059 0.00264985 0
0.165677 -0.00275494 0
0.16582 -0.00507475 0
0.358265 0.0191406 0
0.190233 0.00655203 0
0.365828 0.0134339 0
0.165303 0.000169804 0
0.350399 0.00956715 0
0.165351 -0.00191916 0
0.35805 0.0149306 0
0.165099 -0.00118699 0
0.165233 -0.00261097 0
0.165428 -0.00441904 0
0.165471 -0.00603779 0
0.348494 0.017967 0
0.357804 0.00967298 0
0.217267 0.00538541 0
0.16501 -0.00371346 0
0.164862 -0.00259785 0
0.165358 -0.00767395 0
0.306327 0.00587524 0
0.171327 -0.00126286 0
0.348199 0.0113703 0
0.357582 0.00462044 0
0.356862 0.000624495 0
0.164597 -0.00543271 0
0.164479 -0.00466012 0
0.165336 -0.010167 0
0.164722 -0.0075751 0
0.249792 0.00106474 0
0.162101 -0.00483956 0
0.164635 -0.00791608 0
0.356766 -0.00156181 0
0.164545 -0.00826011 0
0.347902 0.00346966 0
0.164874 -0.0108554 0
0.164736 -0.010064 0
0.164292 -0.00670545 0
0.164404 -0.00879894 0
0.163758 -0.0116369 0
0.163852 -0.00805768 0
0.164255 -0.00934409 0
0.338298 0.00585216 0
0.164504 -0.0105458 0
0.164007 -0.0101787 0
0.355588 -0.00726256 0
0.338229 0.00279935 0
0.164464 -0.0127265 0
0.197533 -0.00874359 0
0.163747 -0.0110248 0
0.164023 -0.0100177 0
0.338169 -0.000139719 0
0.347571 -0.00606847 0
0.283761 -0.00917372 0
0.16616 -0.00932933 0
0.163329 -0.0122856 0
0.338114 -0.00384823 0
0.16438 -0.0152986 0
0.341024 -0.0124408 0
0.162762 -0.0118533 0
0.16361 -0.014138 0
0.16393 -0.0158946 0
0.16287 -0.0135698 0
0.338049 -0.00745524 0
0.163399 -0.0148045 0
0.163715 -0.0156672 0
0.17002 -0.0120609 0
0.163042 -0.0158606 0
0.160965 0 0
0.337942 -0.0119885 0
0.311692 -0.0181724 0
0.162206 -0.0154641 0
0.346654 -0.0172541 0
0.16356 -0.0177791 0
0.326362 -0.00800666 0
0.162454 -0.0174968 0
0.337786 -0.0163964 0
0.161399 -0.017443 0
0.18495 -0.0151908 0
0.326285 -0.0136001 0
0.162218 -0.0174297 0
0.258508 -0.0204482 0
0.163041 -0.0203749 0
0.162675 -0.0208739 0
0.162134 -0.0205912 0
0.337448 -0.0218364 0
0.16147 -0.0199827 0
0.162008 -0.0209132 0
0.161879 -0.0212374 0
0.162171 -0.0219229 0
0.160208 -0.0202467 0
0.161681 -0.0217454 0
0.161476 -0.022259 0
0.329029 -0.0300075 0
0.326162 -0.0204803 0
0.337094 -0.0271971 0
0.161155 -0.0230434 0
0.161578 -0.0234604 0
0.161837 -0.0235174 0
0.2071 -0.0209081 0
0.160816 -0.0238409 0
0.16172 -0.0144345 0
0.159755 -0.0236949 0
0.158972 -0.0231614 0
0.160299 -0.0250274 0
0.335859 -0.0336304 0
0.31436 -0.0214675 0
0.32591 -0.0289293 0
0.159747 -0.0262413 0
0.16105 -0.0260197 0
0.314362 -0.0241397 0
0.161329 -0.0253963 0
0.160033 -0.0277712 0
0.314352 -0.0267813 0
0.160178 -0.0222198 0
0.172063 -0.0273091 0
0.333014 -0.0393577 0
0.158879 -0.0279989 0
0.160255 -0.0280399 0
0.15756 -0.0272303 0
0.159766 -0.0283882 0
0.314319 -0.0300716 0
0.160415 -0.027724 0
0.236335 -0.0316627 0
0.159325 -0.0293638 0
0.15699 -0.0290624 0
0.325429 -0.0391694 0
0.157949 -0.0297871 0
0.314268 -0.0333213 0
0.158612 -0.0308725 0
0.308174 -0.0416792 0
0.314176 -0.0373505 0
0.156952 -0.0312012 0
0.156576 -0.0322791 0
0.159129 -0.031044 0
0.157466 -0.0331562 0
0.159341 -0.0302772 0
0.314056 -0.0413209 0
0.26587 -0.0444027 0
0.155056 -0.0348251 0
0.323457 -0.0508976 0
0.157524 -0.0347082 0
0.300214 -0.0370774 0
0.157378 -0.0350037 0
0.313868 -0.0461967 0
0.157713 -0.0346168 0
0.15723 -0.0353011 0
0.157004 -0.0357668 0
0.158146 -0.0187074 0
0.155663 -0.0365242 0
0.157592 -0.034796 0
0.156773 -0.0362369 0
0.153288 -0.0362647 0
0.300194 -0.0421929 0
0.161438 -0.0363556 0
0.156414 -0.0369538 0
0.313626 -0.0509712 0
0.156043 -0.0376802 0
0.156541 -0.037253 0
0.210445 -0.0451287 0
0.15297 -0.0383217 0
0.155477 -0.0387579 0
0.15681 -0.036158 0
0.155381 0 0
0.300109 -0.0483954 0
0.313066 -0.0566645 0
0.157037 -0.0349704 0
0.154884 -0.039854 0
0.15281 -0.0413739 0
0.28961 -0.0608329 0
0.154006 -0.0414383 0
0.156059 -0.0372411 0
0.150682 -0.0420073 0
0.170211 -0.0432068 0
0.312537 -0.0623246 0
0.299913 -0.0559087 0
0.153074 -0.043063 0
0.154238 -0.0109065 0
0.154783 -0.0409125 0
0.154294 -0.0420514 0
0.154014 -0.0426143 0
0.153556 -0.0435018 0
0.285875 -0.0525927 0
0.308711 -0.068382 0
0.151707 -0.0453496 0
0.154211 -0.0410726 0
0.285872 -0.0550626 0
0.152829 -0.0448692 0
0.299527 -0.0649236 0
0.147649 -0.0469006 0
0.28586 -0.0575262 0
0.154412 -0.0394791 0
0.15202 -0.0472115 0
0.153709 -0.0318167 0
0.150229 -0.0477076 0
0.151688 -0.0469284 0
0.14821 -0.0482109 0
0.285834 -0.0604724 0
0.299778 -0.0732647 0
0.18918 -0.0534897 0
0.153553 -0.0226738 0
0.285792 -0.063408 0
0.148068 -0.0508921 0
0.149894 -0.0499598 0
0.285722 -0.066936 0
0.298828 -0.0756228 0
0.151633 -0.0460248 0
0.144771 -0.051771 0
0.15121 -0.0473598 0
0.263056 -0.0709923 0
0.150666 -0.0489517 0
0.285628 -0.0704489 0
0.150524 -0.0492221 0
0.150381 -0.0494939 0
0.15016 -0.0499194 0
0.151214 -0.0459544 0
0.149935 -0.0503483 0
0.149587 -0.0510009 0
0.145715 -0.0541123 0
0.151484 -0.043716 0
0.285481 -0.0746576 0
0.14923 -0.0516609 0
0.147085 -0.0543098 0
0.148689 -0.0526382 0
0.150559 -0.0460572 0
0.213864 -0.0678082 0
0.149278 -0.0508998 0
0.285302 -0.0788491 0
0.148126 -0.0536308 0
0.269335 -0.0701966 0
0.293654 -0.0871063 0
0.141809 -0.0571754 0
0.147287 -0.0550596 0
0.142745 -0.0581817 0
0.285046 -0.083839 0
0.142538 -0.0582776 0
0.269317 -0.0749599 0
0.146403 -0.0565142 0
0.167708 -0.0665452 0
0.284734 -0.0887896 0
0.147949 -0.0505456 0
0.14511 -0.0585432 0
0.147282 -0.0533366 0
0.142823 -0.0603052 0
0.269241 -0.0805038 0
0.148246 -0.0477011 0
0.146374 -0.0558141 0
0.146111 -0.0563393 0
0.147988 -0.0261215 0
0.143729 -0.0606065 0
0.139217 -0.0625075 0
0.145687 -0.057163 0
0.283694 -0.0943816 0
0.145017 -0.0584237 0
0.269071 -0.0870254 0
0.1462 0 0
0.235034 -0.0874568 0
0.142125 -0.0651908 0
0.141785 -0.0633905 0
0.143969 -0.0603055 0
0.282899 -0.100021 0
0.268766 -0.094739 0
0.142348 -0.063042 0
0.144855 -0.0398878 0
0.139689 -0.0662329 0
0.144036 -0.0564618 0
0.135051 -0.0677868 0
0.14431 -0.0549492 0
0.252497 -0.0878515 0
0.14474 -0.0513666 0
0.13652 -0.0682017 0
0.271831 -0.103697 0
0.134419 -0.0685849 0
0.252489 -0.0901489 0
0.143973 -0.0538932 0
0.142801 -0.0590916 0
0.252474 -0.0924674 0
0.139865 -0.0669035 0
0.268246 -0.103816 0
0.141735 -0.0620212 0
0.136792 -0.0699175 0
0.252439 -0.095065 0
0.141612 -0.0622809 0
0.141487 -0.0625412 0
0.147415 -0.0745588 0
0.141291 -0.0629474 0
0.248736 -0.104633 0
0.141091 -0.0633551 0
0.252391 -0.0976902 0
0.140781 -0.063973 0
0.140463 -0.0645943 0
0.139984 -0.0655086 0
0.252322 -0.10069 0
0.130817 -0.0730439 0
0.139486 -0.0664293 0
0.133668 -0.0736375 0
0.252232 -0.103723 0
0.140049 -0.0631137 0
0.138753 -0.0677438 0
0.136086 -0.0721686 0
0.201164 -0.095846 0
0.141596 -0.0292424 0
0.140993 -0.0547204 0
0.267097 -0.114283 0
0.140421 -0.0589752 0
0.137983 -0.0690699 0
0.252104 -0.107222 0
0.136873 -0.0709047 0
0.251944 -0.110755 0
0.135696 -0.0727585 0
0.12802 -0.078026 0
0.157621 -0.0870775 0
0.138033 -0.0642009 0
0.129638 -0.0781763 0
0.251719 -0.114835 0
0.125707 -0.0795434 0
0.134025 -0.0752337 0
0.13663 -0.06773 0
0.233758 -0.107164 0
0.136393 -0.068255 0
0.137703 -0.0155285 0
0.251342 -0.122152 0
0.251452 -0.118947 0
0.130492 -0.0790124 0
0.136018 -0.069073 0
0.135432 -0.0703105 0
0.132237 -0.0777207 0
0.137042 -0.057714 0
0.233732 -0.111622 0
0.131743 -0.0851539 0
0.134529 -0.0721275 0
0.251055 -0.123631 0
0.136196 -0.0626675 0
0.136383 -0.0605087 0
0.125449 -0.0826719 0
0.233676 -0.116532 0
0.133153 -0.0747132 0
0.135022 -0.0653263 0
0.129787 -0.0809015 0
0.25053 -0.128313 0
0.12072 -0.0859065 0
0.233557 -0.122029 0
0.131077 -0.0782697 0
0.168128 -0.103674 0
0.134189 -0.04614 0
0.248801 -0.133175 0
0.127152 -0.0840616 0
0.134104 0 0
0.132889 -0.0687602 0
0.134606 -0.0316071 0
0.233344 -0.128261 0
0.122745 -0.0872879 0
0.120368 -0.087874 0
0.132891 -0.0603861 0
0.244037 -0.136681 0
0.131241 -0.0726645 0