# vtk DataFile Version 3.0
File generated from DClib
ASCII

DATASET UNSTRUCTURED_GRID
POINTS 1909 float
50 0 0 
48.75 0 0 
50 1.66667 0 
47.5 0 0 
50 3.33333 0 
46.25 0 0 
50 5 0 
45 0 0 
43.75 0 0 
50 6.66667 0 
43 2 0 
42.5 0 0 
50 8.33333 0 
43 4.66667 0 
41.25 0 0 
41.075 2 0 
50 10 0 
40 0 0 
43 7.33333 0 
39.15 2 0 
38.75 0 0 
43 10 0 
37.5 0 0 
37.225 2 0 
36.25 0 0 
36 4 0 
35.3 2 0 
36 5 0 
35 0 0 
35.325 4 0 
36 6 0 
36 7 0 
34.65 4 0 
36 8 0 
33.75 0 0 
33.975 4 0 
36 9 0 
33.375 2 0 
33.3 4 0 
36 10 0 
32.5 0 0 
32.625 4 0 
33 6 0 
31.95 4 0 
33 7.45455 0 
31.45 2 0 
31.25 0 0 
31.95 6 0 
33 8.79545 0 
31.275 4 0 
33 10 0 
30.6 4 0 
30 0 0 
30.9 6 0 
29.925 4 0 
29.525 2 0 
29.85 6 0 
29.25 4 0 
28.75 0 0 
30 8 0 
30 8.45455 0 
28.575 4 0 
29.625 8 0 
30 8.90909 0 
28.8 6 0 
30 9.25 0 
29.782 8.90909 0 
30 9.59091 0 
29.9487 9.59091 0 
29.25 8 0 
29.7462 9.25 0 
30 9.79545 0 
29.897 9.59091 0 
29.564 8.90909 0 
29.9547 9.79545 0 
29.3462 8.45455 0 
29.84 9.59091 0 
30 10 0 
29.8975 9.79545 0 
29.9882 10 0 
29.9902 10.0098 0 
29.7827 9.59091 0 
29.9765 10 0 
29.9804 10.0196 0 
29.9667 10.0098 0 
29.9591 10 0 
29.9686 10.0196 0 
29.9659 10.0341 0 
29.9569 10.0196 0 
29.9418 10 0 
29.9395 10.0196 0 
29.9515 10.0485 0 
29.932 10.0098 0 
29.9424 10.0341 0 
29.8241 9.79545 0 
29.7181 9.59091 0 
29.9166 10 0 
29.9397 10.0485 0 
29.9222 10.0196 0 
29.9279 10.0485 0 
29.9305 10.0695 0 
29.8914 10 0 
29.9077 10.0341 0 
27.9 4 0 
29.897 10.0196 0 
29.9106 10.0485 0 
29.8817 10.0098 0 
29.907 10.0695 0 
29.8933 10.0485 0 
29.9095 10.0905 0 
29.8719 10.0196 0 
27.6 2 0 
29.8556 10 0 
29.8978 10.0905 0 
29.6531 9.59091 0 
29.3437 8.90909 0 
27.5 0 0 
29.8681 10.0485 0 
29.886 10.0905 0 
29.8574 10.0341 0 
29.4839 9.25 0 
29.8723 10.0695 0 
29.7289 9.79545 0 
29.836 10.0196 0 
29.8687 10.0905 0 
29.8197 10 0 
29.8797 10.1203 0 
29.843 10.0485 0 
29.8513 10.0905 0 
29.81 10.0098 0 
29.8561 10.1203 0 
29.8002 10.0196 0 
29.8221 10.0695 0 
29.8072 10.0485 0 
29.8262 10.0905 0 
29.5782 9.59091 0 
29.8498 10.1502 0 
29.7695 10 0 
29.7858 10.0341 0 
29.838 10.1502 0 
29.8215 10.1203 0 
29.8011 10.0905 0 
29.8262 10.1502 0 
29.7714 10.0485 0 
28.875 8 0 
29.75 10.0196 0 
29.8089 10.1502 0 
29.7654 10.0905 0 
29.7193 10 0 
29.7916 10.1502 0 
29.7505 10.0695 0 
29.8079 10.1921 0 
29.7713 10.1203 0 
29.7096 10.0098 0 
29.6047 9.79545 0 
29.503 9.59091 0 
29.7213 10.0485 0 
29.7665 10.1502 0 
29.6999 10.0196 0 
29.7844 10.1921 0 
29.7296 10.0905 0 
29.6856 10.0341 0 
29.7414 10.1502 0 
29.7497 10.1921 0 
29.6503 10 0 
29.7661 10.2339 0 
29.6712 10.0485 0 
29.6999 10.1203 0 
29.7543 10.2339 0 
29.6796 10.0905 0 
29.7057 10.1502 0 
29.7425 10.2339 0 
29.1235 8.90909 0 
29.6309 10.0196 0 
29.6504 10.0695 0 
29.4146 9.59091 0 
29.7252 10.2339 0 
29.6996 10.1921 0 
29.6701 10.1502 0 
29.7079 10.2339 0 
29.6296 10.0905 0 
29.5813 10 0 
29.6023 10.0485 0 
29.5716 10.0098 0 
29.6828 10.2339 0 
29.7086 10.2914 0 
29.2101 9.25 0 
29.562 10.0196 0 
29.6201 10.1502 0 
29.6578 10.2339 0 
29.4428 9.79545 0 
29.5999 10.1203 0 
29.6849 10.2914 0 
29.6283 10.1921 0 
29.5477 10.0341 0 
29.3259 9.59091 0 
29.5608 10.0905 0 
29.5335 10.0485 0 
29.6221 10.2339 0 
29.6503 10.2914 0 
29.5702 10.1502 0 
29.4881 10 0 
29.5128 10.0695 0 
29.6511 10.3489 0 
29.5866 10.2339 0 
29.6392 10.3489 0 
29.4689 10.0196 0 
29.6002 10.2914 0 
29.6273 10.3489 0 
29.4921 10.0905 0 
29.61 10.3489 0 
29.5286 10.1921 0 
29.5016 10.1502 0 
29.5368 10.2339 0 
29.5926 10.3489 0 
29.4405 10.0485 0 
29.2199 9.59091 0 
29.4626 10.1203 0 
29.3949 10 0 
28.9 8.90909 0 
29.5676 10.3489 0 
29.5291 10.2914 0 
29.3853 10.0098 0 
28.6923 8.45455 0 
29.487 10.2339 0 
29.5426 10.3489 0 
29.3758 10.0196 0 
29.5734 10.4266 0 
29.4331 10.1502 0 
29.3993 10.0905 0 
28.5 8 0 
29.3617 10.0341 0 
29.5496 10.4266 0 
29.5071 10.3489 0 
29.2327 9.79545 0 
29.3475 10.0485 0 
29.1136 9.59091 0 
29.4187 10.2339 0 
29.5148 10.4266 0 
29.4716 10.3489 0 
29.3918 10.1921 0 
29.3271 10.0695 0 
29.4298 10.2914 0 
29.2714 10 0 
29.3406 10.1502 0 
28.9208 9.25 0 
29.3066 10.0905 0 
29.4648 10.4266 0 
29.422 10.3489 0 
29.4958 10.5042 0 
29.2524 10.0196 0 
27.75 6 0 
29.3504 10.2339 0 
29.4837 10.5042 0 
29.4718 10.5042 0 
29.2774 10.1203 0 
29.4543 10.5042 0 
29.3724 10.3489 0 
29.2244 10.0485 0 
29.4369 10.5042 0 
29.3938 10.4266 0 
28.9853 9.59091 0 
29.2481 10.1502 0 
28.6766 8.90909 0 
29.4119 10.5042 0 
29.2934 10.2914 0 
27.225 4 0 
29.148 10 0 
29.2582 10.2339 0 
29.1837 10.0905 0 
29.3869 10.5042 0 
29.1385 10.0098 0 
29.3044 10.3489 0 
29.1291 10.0196 0 
29.2072 10.1921 0 
29.3514 10.5042 0 
29.1152 10.0341 0 
29.3929 10.6071 0 
29.2949 10.4266 0 
29.1013 10.0485 0 
29.3686 10.6071 0 
29.316 10.5042 0 
29.2364 10.3489 0 
28.9623 9.79545 0 
29.1257 10.1502 0 
29.1662 10.2339 0 
29.0811 10.0695 0 
28.8566 9.59091 0 
29.3336 10.6071 0 
29.2666 10.5042 0 
29.0609 10.0905 0 
28.9875 10 0 
29.2835 10.6071 0 
29.1448 10.3489 0 
29.0321 10.1203 0 
29.2173 10.5042 0 
29.1098 10.2914 0 
28.125 8 0 
28.9688 10.0196 0 
29.1594 10.4266 0 
28.611 9.25 0 
29.29 10.71 0 
28.4486 8.90909 0 
29.0443 10.2339 0 
29.0033 10.1502 0 
29.2777 10.71 0 
28.9413 10.0485 0 
29.2128 10.6071 0 
29.2655 10.71 0 
29.1497 10.5042 0 
29.2478 10.71 0 
28.7003 9.59091 0 
29.0533 10.3489 0 
29.2303 10.71 0 
28.9629 10.1921 0 
28.9013 10.0905 0 
29.2051 10.71 0 
29.0822 10.5042 0 
29.1801 10.71 0 
28.827 10 0 
29.1144 10.6071 0 
28.8177 10.0098 0 
28.9225 10.2339 0 
28.8085 10.0196 0 
29.1447 10.71 0 
28.7949 10.0341 0 
28.8443 10.1502 0 
28.977 10.4266 0 
28.9322 10.3489 0 
29.1094 10.71 0 
28.7813 10.0485 0 
28.9912 10.5042 0 
29.1562 10.8438 0 
28.5436 9.59091 0 
28.7615 10.0695 0 
28.8669 10.2914 0 
29.1313 10.8438 0 
28.6184 9.79545 0 
29.0602 10.71 0 
28.2207 8.90909 0 
28.7418 10.0905 0 
28.0378 8.45455 0 
28.9798 10.6071 0 
29.0958 10.8438 0 
29.0112 10.71 0 
28.9005 10.5042 0 
28.7136 10.1203 0 
28.7644 10.2339 0 
28.8113 10.3489 0 
29.0454 10.8438 0 
28.6223 10 0 
28.6854 10.1502 0 
28.2746 9.25 0 
28.9441 10.71 0 
28.6042 10.0196 0 
27.75 8 0 
28.9747 10.8438 0 
28.6459 10.1921 0 
28.5773 10.0485 0 
29.0225 10.9775 0 
28.3532 9.59091 0 
28.7804 10.5042 0 
28.736 10.4266 0 
28.8772 10.71 0 
29.0097 10.9775 0 
28.9971 10.9775 0 
28.799 10.6071 0 
28.9791 10.9775 0 
28.5384 10.0905 0 
28.6064 10.2339 0 
28.6543 10.3489 0 
28.9611 10.9775 0 
28.8769 10.8438 0 
27.9867 8.90909 0 
26.25 0 0 
28.9358 10.9775 0 
28.7871 10.71 0 
28.9106 10.9775 0 
28.6607 10.5042 0 
28.4177 10 0 
26.55 4 0 
28.552 10.2914 0 
28.483 10.1502 0 
28.4087 10.0098 0 
28.8751 10.9775 0 
28.3998 10.0196 0 
28.3866 10.0341 0 
28.8399 10.9775 0 
28.6974 10.71 0 
28.3735 10.0485 0 
28.1625 9.59091 0 
28.7436 10.8438 0 
28.4976 10.3489 0 
28.3543 10.0695 0 
28.791 10.9775 0 
28.4052 10.2339 0 
28.3352 10.0905 0 
28.8519 11.1481 0 
28.1869 9.79545 0 
28.5607 10.6071 0 
28.5053 10.5042 0 
28.7423 10.9775 0 
28.8258 11.1481 0 
28.308 10.1203 0 
28.5787 10.71 0 
27.904 9.25 0 
28.7893 11.1481 0 
28.424 10.4266 0 
27.7528 8.90909 0 
28.2807 10.1502 0 
28.6758 10.9775 0 
27.375 8 0 
28.7383 11.1481 0 
28.1619 10 0 
28.5649 10.8438 0 
28.2425 10.1921 0 
28.6096 10.9775 0 
28.1444 10.0196 0 
28.298 10.3489 0 
28.4605 10.71 0 
26.7 6 0 
27.9315 9.59091 0 
28.3503 10.5042 0 
28.6676 11.1481 0 
28.1187 10.0485 0 
28.2042 10.2339 0 
28.5207 10.9775 0 
28.0813 10.0905 0 
28.6814 11.3186 0 
27.3818 8.45455 0 
28.6679 11.3186 0 
28.1516 10.2914 0 
28.5703 11.1481 0 
28.6544 11.3186 0 
28.6358 11.3186 0 
27.5109 8.90909 0 
28.3072 10.71 0 
28.6173 11.3186 0 
28.2524 10.6071 0 
28.4322 10.9775 0 
28.028 10.1502 0 
28.5915 11.3186 0 
28.0989 10.3489 0 
28.33 10.8438 0 
28.5658 11.3186 0 
28.153 10.5042 0 
27.9061 10 0 
27.8975 10.0098 0 
28.5303 11.3186 0 
28.4384 11.1481 0 
27.7002 9.59091 0 
27.889 10.0196 0 
27.8765 10.0341 0 
28.4949 11.3186 0 
28.3154 10.9775 0 
27.9532 10.2339 0 
27.8639 10.0485 0 
28.0276 10.4266 0 
28.1544 10.71 0 
27.8457 10.0695 0 
27.4909 9.25 0 
28.4463 11.3186 0 
27 8 0 
27.8275 10.0905 0 
28.3979 11.3186 0 
27.8015 10.1203 0 
27.6542 9.79545 0 
25.675 2 0 
28.1991 10.9775 0 
27.2691 8.90909 0 
27.9563 10.5042 0 
28.4682 11.5318 0 
28.2625 11.1481 0 
27.7755 10.1502 0 
28.3322 11.3186 0 
27.8502 10.3489 0 
28.4401 11.5318 0 
25.875 4 0 
27.7391 10.1921 0 
28.4019 11.5318 0 
28.0268 10.8438 0 
28.2668 11.3186 0 
27.9602 10.71 0 
28.3498 11.5318 0 
27.4223 9.59091 0 
27.7026 10.2339 0 
27.5927 10 0 
28.0486 10.9775 0 
27.8616 10.6071 0 
27.5762 10.0196 0 
28.1794 11.3186 0 
28.2786 11.5318 0 
27.5519 10.0485 0 
27.6524 10.2914 0 
28.0319 11.1481 0 
27.7108 10.5042 0 
27.5167 10.0905 0 
27.0169 8.90909 0 
28.0924 11.3186 0 
27.6021 10.3489 0 
27.8988 10.9775 0 
28.1818 11.5318 0 
27.7667 10.71 0 
26.625 8 0 
28.255 11.745 0 
27.4664 10.1502 0 
28.2402 11.745 0 
28.2256 11.745 0 
28.2059 11.745 0 
27.978 11.3186 0 
26.7234 8.45455 0 
27.0259 9.25 0 
27.5342 10.4266 0 
28.1863 11.745 0 
27.1442 9.59091 0 
28.0516 11.5318 0 
28.1598 11.745 0 
27.3959 10.2339 0 
28.1334 11.745 0 
27.2793 10 0 
27.2714 10.0098 0 
27.2635 10.0196 0 
27.7086 10.9775 0 
27.6431 10.8438 0 
28.0975 11.745 0 
27.8643 11.3186 0 
27.4661 10.5042 0 
27.2518 10.0341 0 
27.2401 10.0485 0 
28.0617 11.745 0 
26.7648 8.90909 0 
27.5255 10.71 0 
27.7353 11.1481 0 
27.2231 10.0695 0 
28.0133 11.745 0 
27.2061 10.0905 0 
27.8791 11.5318 0 
27.2986 10.3489 0 
27.1818 10.1203 0 
27.9651 11.745 0 
27.3758 10.6071 0 
27.0077 9.79545 0 
27.7174 11.3186 0 
27.1576 10.1502 0 
25 0 0 
27.5193 10.9775 0 
27.9003 11.745 0 
27.1236 10.1921 0 
26.25 8 0 
27.9939 12.0061 0 
25.65 6 0 
27.8359 11.745 0 
26.8136 9.59091 0 
27.0896 10.2339 0 
27.9626 12.0061 0 
27.2853 10.71 0 
25.2 4 0 
27.5713 11.3186 0 
27.9218 12.0061 0 
26.4998 8.90909 0 
27.167 10.5042 0 
27.6541 11.5318 0 
27.0427 10.2914 0 
27.7503 11.745 0 
26.9033 10 0 
27.8677 12.0061 0 
26.8882 10.0196 0 
26.8659 10.0485 0 
26.9958 10.3489 0 
27.2836 10.9775 0 
27.6652 11.745 0 
27.3609 11.1481 0 
27.7955 12.0061 0 
26.499 9.25 0 
[...]
POINT_DATA 1909
SCALARS phi float 1
LOOKUP_TABLE default
VECTORS Displacement float
0 0 0
0 0 0
0 -0.00184684 0
0 0 0
0 -0.000961021 0
0 0 0
0 0.0024037 0
0 0 0
0 0 0
0 0.00799929 0
0.0159611 -0.000659286 0
0 0 0
0 0.0155561 0
0.0301712 0.00569614 0
0 0 0
0.0215936 -0.000645752 0
0 0.024402 0
0 0 0
0.03994 0.0180857 0
0.027573 -0.000762927 0
0 0 0
0.0451569 0.0344171 0
0 0 0
0.0337371 -0.00107397 0
0 0 0
0.0631615 0.00419552 0
0.0397462 -0.00154465 0
0.0747972 0.00915642 0
0 0 0
0.0677245 0.0038541 0
0.0829337 0.0154575 0
0.0881177 0.0226288 0
0.0720684 0.00348786 0
0.0913657 0.0299202 0
0 0 0
0.0763758 0.0029307 0
0.0938886 0.0373237 0
0.0452979 -0.00215119 0
0.0804645 0.00233491 0
0.0962781 0.0453844 0
0 0 0
0.0843333 0.00164129 0
0.108852 0.0130487 0
0.0879423 0.000911995 0
0.119743 0.0255281 0
0.0501264 -0.00286898 0
0 0 0
0.117731 0.00966509 0
0.124592 0.0416349 0
0.0912954 8.04555e-05 0
0.12543 0.0633683 0
0.0943525 -0.000792786 0
0 0 0
0.124823 0.00654164 0
0.0971263 -0.00173412 0
0.0540067 -0.00367533 0
0.130732 0.0032888 0
0.0995904 -0.0027299 0
0 0 0
0.154452 0.0144711 0
0.159291 0.0179831 0
0.101756 -0.00375617 0
0.157363 0.012137 0
0.16427 0.0221826 0
0.135551 -0.000169261 0
0.167852 0.0283794 0
0.166572 0.0200232 0
0.171435 0.0372211 0
0.172117 0.0350196 0
0.159935 0.00979693 0
0.170804 0.0240448 0
0.172189 0.0433984 0
0.172778 0.0332703 0
0.168601 0.0180461 0
0.172858 0.0411066 0
0.164792 0.0131364 0
0.173407 0.0315341 0
0.172361 0.0504488 0
0.17376 0.0385635 0
0.172682 0.0506213 0
0.210886 0.0644087 0
0.173988 0.0300371 0
0.17305 0.0505905 0
0.235015 0.0724709 0
0.209971 0.0637986 0
0.173623 0.0504799 0
0.233967 0.0718611 0
0.237046 0.0721448 0
0.232797 0.0710828 0
0.174245 0.0502381 0
0.230843 0.0699694 0
0.237077 0.0714809 0
0.208418 0.0623637 0
0.236082 0.0708345 0
0.174995 0.0359159 0
0.174572 0.0285637 0
0.175156 0.0495391 0
0.237001 0.0708981 0
0.228903 0.068725 0
0.23693 0.0703346 0
0.237321 0.0707153 0
0.176093 0.0488098 0
0.233893 0.0688899 0
0.103612 -0.00485867 0
0.226319 0.0667961 0
0.236673 0.069556 0
0.206589 0.0595686 0
0.237169 0.0695961 0
0.23629 0.0686658 0
0.237003 0.0698036 0
0.223905 0.0648704 0
0.0567615 -0.00455304 0
0.177359 0.0473421 0
0.236946 0.069227 0
0.175102 0.0272289 0
0.170523 0.016183 0
0 0 0
0.23549 0.0672225 0
0.236871 0.0686186 0
0.230389 0.0655665 0
0.17342 0.0209045 0
0.236836 0.0677417 0
0.176607 0.0332107 0
0.221043 0.0619707 0
0.236743 0.06765 0
0.178579 0.0459522 0
0.236628 0.068464 0
0.234362 0.0656439 0
0.236608 0.06663 0
0.204721 0.0551291 0
0.236488 0.0671348 0
0.21843 0.0592597 0
0.235851 0.064658 0
0.232583 0.0631841 0
0.236374 0.0650992 0
0.175699 0.025884 0
0.23615 0.0669474 0
0.180118 0.0438137 0
0.225633 0.060366 0
0.236063 0.0662415 0
0.236248 0.0650403 0
0.236114 0.0635438 0
0.235975 0.0655215 0
0.230567 0.0607481 0
0.162413 0.00748467 0
0.215445 0.055576 0
0.235839 0.0644477 0
0.235593 0.0613698 0
0.181502 0.0418419 0
0.235698 0.0633711 0
0.233502 0.0600983 0
0.235423 0.0646758 0
0.23586 0.0619487 0
0.202847 0.0493102 0
0.178553 0.0304321 0
0.176271 0.0246475 0
0.227765 0.0573577 0
0.235495 0.061818 0
0.212914 0.0523029 0
0.235264 0.063206 0
0.234892 0.0592364 0
0.219869 0.0536089 0
0.235294 0.0603003 0
0.235018 0.0610634 0
0.18315 0.0393486 0
0.234705 0.0623555 0
0.224979 0.054214 0
0.235144 0.0577514 0
0.234616 0.0616149 0
0.233626 0.0563838 0
0.235013 0.0582121 0
0.234527 0.0608848 0
0.172262 0.0143355 0
0.210127 0.0482928 0
0.2293 0.0541133 0
0.176963 0.0233667 0
0.234399 0.0598274 0
0.234656 0.0580968 0
0.234751 0.0562398 0
0.234273 0.0587964 0
0.23205 0.0536746 0
0.184527 0.0370454 0
0.221441 0.05023 0
0.200973 0.0427776 0
0.234098 0.0573496 0
0.233751 0.0592081 0
0.175813 0.0180442 0
0.207964 0.0448289 0
0.234327 0.053678 0
0.23393 0.0559631 0
0.180746 0.0275516 0
0.233494 0.0525315 0
0.233596 0.0578095 0
0.234173 0.0542563 0
0.213755 0.0460372 0
0.177666 0.0221752 0
0.229596 0.0502359 0
0.218279 0.0466981 0
0.2337 0.0540897 0
0.233372 0.0558511 0
0.233841 0.0513157 0
0.186101 0.0345058 0
0.223264 0.0470793 0
0.232813 0.0562169 0
0.233479 0.0523325 0
0.232739 0.0555529 0
0.205575 0.0409127 0
0.233063 0.0532212 0
0.232668 0.054905 0
0.226957 0.0470683 0
0.232565 0.0539786 0
0.233542 0.0496136 0
0.232896 0.0483813 0
0.233193 0.0500421 0
0.232466 0.0530836 0
0.214558 0.0425573 0
0.178498 0.0208507 0
0.229956 0.0464688 0
0.187344 0.0321254 0
0.173907 0.0125013 0
0.232327 0.0518384 0
0.232661 0.0498612 0
0.198994 0.0361484 0
0.169275 0.00852423 0
0.232934 0.0479476 0
0.232194 0.0506508 0
0.203783 0.0375217 0
0.231748 0.0525114 0
0.231639 0.0456696 0
0.223363 0.0432277 0
0.164627 0.00511348 0
0.207984 0.0384054 0
0.23162 0.0513217 0
0.232013 0.049049 0
0.183068 0.0244354 0
0.211509 0.0389698 0
0.179357 0.0195957 0
0.232575 0.0453175 0
0.231441 0.0496782 0
0.231844 0.047545 0
0.232317 0.0443101 0
0.216122 0.0395378 0
0.232173 0.0458025 0
0.188721 0.029602 0
0.229481 0.042382 0
0.178002 0.0151534 0
0.219932 0.0397812 0
0.231198 0.0474826 0
0.23162 0.0455854 0
0.230665 0.0491189 0
0.201699 0.033782 0
0.139226 -0.00377489 0
0.232201 0.0429443 0
0.230613 0.048575 0
0.230562 0.0480449 0
0.224012 0.0396962 0
0.230491 0.0472897 0
0.231411 0.0437715 0
0.208155 0.0349495 0
0.230421 0.0465592 0
0.230884 0.0446691 0
0.180373 0.0181487 0
0.226953 0.0393281 0
0.175437 0.0106693 0
0.230322 0.045544 0
0.231618 0.0411281 0
0.105166 -0.00594982 0
0.189783 0.0271886 0
0.231443 0.0400615 0
0.215786 0.035743 0
0.230227 0.0445716 0
0.196927 0.0295986 0
0.231144 0.041472 0
0.200138 0.0304772 0
0.229229 0.0384261 0
0.230096 0.0432544 0
0.203 0.0310409 0
0.229512 0.045141 0
0.230494 0.0412112 0
0.205547 0.0314495 0
0.229422 0.0441807 0
0.22997 0.042006 0
0.230901 0.0393683 0
0.185384 0.0208302 0
0.223342 0.0356643 0
0.230352 0.0374011 0
0.209068 0.0319158 0
0.181403 0.0167508 0
0.229295 0.0428584 0
0.229799 0.0403594 0
0.212251 0.0321997 0
0.190925 0.0245204 0
0.229123 0.0410815 0
0.230586 0.0367513 0
0.216305 0.0323779 0
0.229638 0.0388135 0
0.230625 0.0358776 0
0.166647 0.00274398 0
0.198368 0.0267928 0
0.230029 0.0371164 0
0.180072 0.0121482 0
0.228307 0.041535 0
0.176858 0.00879135 0
0.228329 0.0342192 0
0.219699 0.0323076 0
0.228275 0.0411006 0
0.20287 0.0275637 0
0.228894 0.0387662 0
0.228243 0.0406758 0
0.229424 0.0368285 0
0.228199 0.0400728 0
0.182605 0.0150961 0
0.230265 0.0343718 0
0.228155 0.0394859 0
0.223265 0.0318714 0
0.208463 0.0281366 0
0.228093 0.0386685 0
0.229219 0.0349764 0
0.228032 0.0378779 0
0.191822 0.0219392 0
0.2286 0.0358482 0
0.195259 0.0230256 0
0.225787 0.0312177 0
0.197204 0.0235133 0
0.227945 0.0367992 0
0.199133 0.0238623 0
0.215327 0.0283216 0
0.229504 0.0324056 0
0.229575 0.0314925 0
0.22786 0.0357635 0
0.200874 0.0241169 0
0.228956 0.0326515 0
0.227024 0.0373942 0
0.183777 0.0134713 0
0.203266 0.0243961 0
0.227693 0.030058 0
0.226966 0.0366112 0
0.187595 0.0164843 0
0.22774 0.034382 0
0.178175 0.00692161 0
0.205542 0.0245905 0
0.172869 0.00380347 0
0.228224 0.0322856 0
0.226884 0.0355344 0
0.227621 0.0330653 0
0.228706 0.0304963 0
0.208652 0.0247542 0
0.222116 0.0276288 0
0.228517 0.0288193 0
0.22677 0.034076 0
0.192752 0.0189519 0
0.211558 0.0247862 0
0.182096 0.00898939 0
0.227458 0.03135 0
0.196135 0.0198444 0
0.168379 0.000345303 0
0.226615 0.0321463 0
0.215226 0.0246423 0
0.199071 0.0202749 0
0.225739 0.0335979 0
0.185116 0.0115255 0
0.228383 0.0278404 0
0.228552 0.0270959 0
0.227296 0.0297277 0
0.225718 0.0332352 0
0.225697 0.0328791 0
0.227751 0.028069 0
0.225668 0.0323792 0
0.202792 0.0205745 0
0.218346 0.0243007 0
0.226507 0.0256694 0
0.225639 0.0318899 0
0.226407 0.029664 0
0.179373 0.00499312 0
0 0 0
0.225597 0.0312104 0
0.227079 0.0276717 0
0.225555 0.0305483 0
0.228049 0.0254129 0
0.193523 0.0160553 0
0.106402 -0.00714057 0
0.22163 0.023575 0
0.207749 0.0206693 0
0.194763 0.0163641 0
0.225495 0.0296431 0
0.195693 0.0165379 0
0.196819 0.0166879 0
0.225434 0.0287665 0
0.226866 0.0257474 0
0.197906 0.016805 0
0.186365 0.00959424 0
0.226134 0.0265735 0
0.223933 0.0226743 0
0.199427 0.0169265 0
0.225348 0.0275921 0
0.21399 0.0203218 0
0.200896 0.0170033 0
0.224291 0.0292141 0
0.189716 0.0112779 0
0.227193 0.0232623 0
0.227332 0.0225236 0
0.225262 0.0264646 0
0.224257 0.0285399 0
0.202934 0.0170508 0
0.226592 0.0233796 0
0.184044 0.00558403 0
0.224207 0.0276246 0
0.225624 0.0212704 0
0.180458 0.0030723 0
0.204938 0.0170422 0
0.225144 0.0249903 0
0.169886 -0.00205052 0
0.224138 0.0263911 0
0.194229 0.0126274 0
0.225779 0.0228704 0
0.207688 0.0169425 0
0.225028 0.0235922 0
0.195508 0.0128094 0
0.22029 0.0190911 0
0.226334 0.0211815 0
0.141726 -0.00749522 0
0.187729 0.00727234 0
0.226275 0.0198192 0
0.224042 0.024758 0
0.19711 0.0129113 0
0.210327 0.0167386 0
0.224876 0.0218098 0
0.199384 0.0129577 0
0.222831 0.025137 0
0.175652 -0.000941469 0
0.222819 0.024818 0
0.213659 0.0162988 0
0.223911 0.0226517 0
0.222806 0.0245048 0
0.22279 0.0240745 0
0.181437 0.00108744 0
0.225974 0.018486 0
0.222773 0.0236533 0
0.226161 0.017869 0
0.224729 0.0201311 0
0.202533 0.0128576 0
0.22275 0.0230762 0
0.21655 0.0156849 0
0.225307 0.0185604 0
0.222727 0.0225139 0
0.224304 0.016595 0
0.19486 0.00932738 0
0.19525 0.0093377 0
0.222694 0.0217511 0
0.223732 0.0200184 0
0.188935 0.00495593 0
0.195659 0.00934898 0
0.196213 0.00933945 0
0.222662 0.0210126 0
0.224541 0.0180289 0
0.20686 0.0124708 0
0.196789 0.00932911 0
0.219579 0.0146364 0
0.225572 0.0159446 0
0.197639 0.00930331 0
0.185849 0.00183906 0
0.222616 0.0200266 0
0.171116 -0.00445319 0
0.198498 0.00926436 0
0.222572 0.0190775 0
0.199717 0.00918196 0
0.191938 0.00527736 0
0.0582571 -0.00551968 0
0.224337 0.0160141 0
0.182288 -0.000897093 0
0.221703 0.0134291 0
0.221265 0.0205053 0
0.223486 0.0167977 0
0.200937 0.00907237 0
0.222512 0.0178335 0
0.212414 0.011535 0
0.221248 0.0199047 0
0.107325 -0.008302 0
0.20265 0.00887758 0
0.221224 0.0191122 0
0.224637 0.0134942 0
0.22245 0.0166336 0
0.224776 0.0128612 0
0.221189 0.0180638 0
0.190129 0.00217393 0
0.204365 0.00863791 0
0.195573 0.00550596 0
0.224043 0.0134999 0
0.223207 0.0116785 0
0.196019 0.00541065 0
0.222366 0.0150806 0
0.221139 0.0166873 0
0.196788 0.00528833 0
0.206716 0.00823444 0
0.223129 0.0128468 0
0.218101 0.00961999 0
0.197994 0.00510291 0
0.18304 -0.00296122 0
0.22227 0.0135688 0
0.209017 0.00774336 0
0.223701 0.0110801 0
0.221069 0.0149 0
0.223679 0.00989529 0
0.17213 -0.00687132 0
0.219608 0.0161805 0
0.199789 0.00479209 0
0.219606 0.0158932 0
0.219603 0.0156107 0
0.219601 0.0152353 0
0.222124 0.0116263 0
0.177621 -0.00572075 0
0.187388 -0.00235265 0
0.211904 0.00693729 0
0.219598 0.0148662 0
0.191101 -0.000599089 0
0.220965 0.0125934 0
0.219595 0.0143716 0
0.202366 0.00424837 0
0.219591 0.0138853 0
0.196199 0.00181062 0
0.196366 0.00174587 0
0.196537 0.00168195 0
0.223203 0.008094 0
0.223364 0.00755523 0
0.219585 0.0132328 0
0.221955 0.00973374 0
0.214462 0.00597983 0
0.196794 0.00158751 0
0.197064 0.00149503 0
0.219578 0.0125909 0
0.183649 -0.00502977 0
0.221674 0.00638139 0
0.222545 0.00803069 0
0.197485 0.00136544 0
0.219564 0.0117311 0
0.197928 0.00123665 0
0.220799 0.00963747 0
0.205955 0.00329411 0
0.198576 0.0010464 0
0.219546 0.0108839 0
0.217142 0.0045284 0
0.193997 -0.00163622 0
0.221707 0.00734392 0
0.199235 0.000846752 0
0 0 0
0.222643 0.00523578 0
0.219512 0.00976017 0
0.200178 0.000548846 0
0.172881 -0.0092926 0
0.217783 0.0113009 0
0.143036 -0.0113408 0
0.219472 0.00865327 0
0.191952 -0.00387525 0
0.201144 0.000231515 0
0.217782 0.010731 0
0.219015 0.0029336 0
0.107902 -0.00958314 0
0.221423 0.00502821 0
0.217779 0.00999739 0
0.18415 -0.00720359 0
0.210597 0.00164254 0
0.220516 0.00590842 0
0.202481 -0.00024436 0
0.219407 0.00720097 0
0.196965 -0.00244222 0
0.217771 0.00903687 0
0.197216 -0.00259781 0
0.197611 -0.00282428 0
0.203853 -0.000757086 0
0.221687 0.00182307 0
0.219332 0.00577509 0
0.221582 0.00231799 0
0.217755 0.00777006 0
0.188495 -0.00709543 0
0.198224 -0.00315058 0
0.220257 0.000745674 0
0.221007 0.00217781 0
0.205708 -0.00151719 0
0.217722 0.00610128 0
0.219216 0.00393697 0
0.199146 -0.00362651 0
0.215438 -0.00110239 0
0.184498 -0.00938347 0
0.178766 -0.0105666 0
0.192503 -0.00713958 0
0.220029 0.00132932 0
0.207552 -0.00235486 0
0.173408 -0.0117472 0
0.215866 0.00658953 0
0.200463 -0.0043406 0
0.21908 0.00214142 0
0.215868 0.00629491 0
0.217657 0.0039212 0
0.220492 -0.00144886 0
0.21587 0.006003 0
0.220522 -0.000562479 0
0.215871 0.0056291 0
0.215872 0.00525852 0
0.215871 0.0047748 0
0.19738 -0.00660738 0
0.209856 -0.00359028 0
0.197509 -0.00668703 0
0.197637 -0.0067672 0
0.21587 0.00429539 0
0.197819 -0.00688634 0
0.202366 -0.00540886 0
0.218875 -0.000123536 0
0.198 -0.00700639 0
0.215866 0.0036633 0
0.198259 -0.00718193 0
0.217534 0.00111854 0
0.21586 0.00303738 0
0.198517 -0.00735936 0
0.198886 -0.00761598 0
0.184714 -0.011696 0
0.211948 -0.00495575 0
0.215849 0.00221007 0
0.219935 -0.00425239 0
0.219828 -0.00386898 0
0.199253 -0.0078774 0
0.218638 -0.00232617 0
0.215835 0.00139249 0
0.21841 -0.00523764 0
0.195112 -0.00963647 0
0.199765 -0.00825228 0
0.219207 -0.00413768 0
0.20505 -0.00702439 0
0.21581 0.000317135 0
0.192835 -0.0109303 0
0.200269 -0.00863775 0
0.173682 -0.0142133 0
0.217308 -0.00241103 0
0.108135 -0.0108457 0
0.215781 -0.000742844 0
0.21413 -0.00688338 0
0.188985 -0.0124701 0
0.20095 -0.00918528 0
0.218289 -0.00504264 0
0.213546 0.00107325 0
0.219049 -0.00703469 0
0.215732 -0.00212185 0
0.213548 0.000449741 0
0.20162 -0.00975414 0
0.184772 -0.0140134 0
0.213548 -0.000322536 0
0.19756 -0.0113682 0
0.197775 -0.011534 0
0.215673 -0.00347736 0
0.215669 -0.00893081 0
0.208528 -0.0094768 0
0.213544 -0.00130194 0
0.198094 -0.0117818 0
0.202577 -0.0105327 0
0.217888 -0.00767132 0
0.198554 -0.0121481 0
0.179098 -0.015501 0
0.216906 -0.0067556 0
0.213533 -0.00256126 0
0.215579 -0.00521466 0
0.203542 -0.0113447 0
0.199195 -0.0126848 0
0.143154 -0.0153798 0
0.217898 -0.0107368 0
0.192813 -0.0147032 0
0.213506 -0.00418772 0
0.217867 -0.0104738 0
0.173732 -0.0167094 0
0.215468 -0.00691719 0
0.21661 -0.0116133 0
0.200062 -0.0134667 0
0.204839 -0.0124675 0
0.184671 -0.0164875 0
0.217313 -0.0108387 0
0.213452 -0.00628094 0
0 0 0
0.215298 -0.00906184 0
0.212199 -0.0131283 0
0.210992 -0.00436537 0
0.201194 -0.0146012 0
0.206118 -0.0136603 0
0.210994 -0.00469881 0
0.210996 -0.00502987 0
0.0583039 -0.00658001 0
0.197274 -0.0160764 0
0.210997 -0.00543458 0
0.216213 -0.0119679 0
0.197375 -0.0161638 0
0.197475 -0.0162517 0
0.210998 -0.00583629 0
0.216575 -0.014275 0
0.19762 -0.016382 0
0.213345 -0.00894924 0
0.215099 -0.011156 0
0.210998 -0.00633978 0
0.197763 -0.0165133 0
0.216646 -0.0138839 0
0.197968 -0.0167053 0
0.210997 -0.00683926 0
0.19817 -0.0168993 0
0.207679 -0.0153311 0
0.210994 -0.00747646 0
0.202635 -0.0162397 0
0.198455 -0.0171794 0
0.188652 -0.0185387 0
0.107983 -0.0122723 0
0.210989 -0.00810809 0
0.184407 -0.0189635 0
0.198736 -0.0174634 0
0.173535 -0.0192245 0
0.21098 -0.00892147 0
0.199121 -0.0178679 0
0.214801 -0.0137419 0
0.192425 -0.0190125 0
0.194699 -0.0187559 0
0.210967 -0.00972692 0
0.199498 -0.0182801 0
0.213147 -0.0123017 0
0.209093 -0.0171309 0
0.210945 -0.0107659 0
0.215734 -0.0176046 0
0.199999 -0.0188592 0
0.21571 -0.0174795 0
0.178638 -0.0205319 0
0.204437 -0.0186037 0
0.214373 -0.0182685 0
0.210917 -0.0117933 0
0.200481 -0.019452 0
0.214454 -0.016259 0
0.215057 -0.0180639 0
0.210871 -0.0131125 0
0.201105 -0.0202706 0
0.210516 -0.0195902 0
0.183949 -0.0216185 0
0.207806 -0.0106978 0
0.212792 -0.0164364 0
0.196454 -0.0214067 0
0.210816 -0.0144147 0
0.207808 -0.0114233 0
0.196622 -0.0215863 0
0.201697 -0.0211119 0
0.196868 -0.0218541 0
0.173119 -0.0217622 0
0.207806 -0.0122812 0
0.213951 -0.0193026 0
0.214644 -0.0209359 0
0.197218 -0.0222481 0
0.21073 -0.0160705 0
0.207799 -0.0133243 0
0.202434 -0.0222597 0
0.206497 -0.0219984 0
0.197705 -0.0228208 0
0.191622 -0.0232982 0
0.21153 -0.0221901 0
0.207783 -0.014619 0
0.210626 -0.0177011 0
0.198359 -0.0236446 0
0.20312 -0.0234459 0
0.213371 -0.022257 0
0.20775 -0.0162466 0
0.183322 -0.0242729 0
0.212178 -0.02143 0
0.210468 -0.0197463 0
0.199209 -0.0248182 0
0.107446 -0.0136218 0
0.14207 -0.0196811 0
0.213188 -0.0249442 0
0.203936 -0.0250477 0
0.187247 -0.0253409 0
0.207687 -0.018302 0
0.213202 -0.0250323 0
0.21196 -0.0255169 0
0.17247 -0.0243173 0
0.210282 -0.021755 0
0.200262 -0.0264754 0
0.212559 -0.0257582 0
0.19515 -0.0266381 0
0.204181 -0.0170399 0
0.195226 -0.0267301 0
0.195302 -0.0268224 0
0.204654 -0.0267154 0
0.177422 -0.0256524 0
0.204182 -0.017438 0
0.208371 -0.026781 0
0.195413 -0.026959 0
0.207573 -0.020891 0
0.195523 -0.0270961 0
0.204183 -0.0178342 0
0.19568 -0.0272961 0
0.204184 -0.0182958 0
0.195835 -0.0274974 0
0.210007 -0.0242334 0
0.204184 -0.0187554 0
0.196053 -0.0277867 0
0.204182 -0.0193054 0
0.196267 -0.0280787 0
0.182449 -0.0271242 0
0.204178 -0.0198527 0
0.190295 -0.0280984 0
0.211549 -0.0288217 0
0.19656 -0.0284922 0
0.211153 -0.027327 0
0.204172 -0.020523 0
0.201481 -0.0287971 0
0.196846 -0.0289111 0
0.205404 -0.0289407 0
0.207368 -0.0241236 0
0.204163 -0.0211895 0
0.209686 -0.0266605 0
0.211629 -0.0291485 0
0.192248 -0.0289468 0
0 0 0
0.197226 -0.0294963 0
0.204149 -0.0220192 0
0.171613 -0.0268889 0
0.197594 -0.0300918 0
0.20413 -0.0228437 0
0.204101 -0.0238792 0
0.198066 -0.0309123 0
0.205966 -0.0312655 0
0.209226 -0.0295999 0
0.204065 -0.0249071 0
0.207013 -0.0281056 0
0.198512 -0.0317518 0
0.20274 -0.0320304 0
0.210391 -0.0328656 0
0.181407 -0.0299698 0
0.204011 -0.0262009 0
0.210381 -0.0330942 0
0.209177 -0.0331638 0
0.10647 -0.0151731 0
0.199061 -0.0328939 0
0.193193 -0.0324199 0
0.203946 -0.0274832 0
0.193327 -0.0326064 0
0.208697 -0.0324704 0
0.193522 -0.0328839 0
0.199602 -0.0244131 0
0.206403 -0.0342889 0
0.209519 -0.0341375 0
0.193799 -0.0332906 0
0.199559 -0.0340696 0
0.203848 -0.0290907 0
0.199603 -0.0253064 0
0.188533 -0.0328474 0
0.17055 -0.0294677 0
0.194182 -0.0338791 0
0.199598 -0.0263181 0
0.175483 -0.0308501 0
0.206413 -0.0329257 0
0.184514 -0.0328697 0
0.203733 -0.030681 0
0.194694 -0.0347202 0
0.200131 -0.0356473 0
0.199584 -0.0274953 0
0.208991 -0.0369078 0
0.20375 -0.0364895 0
0.207962 -0.0358777 0
0.199558 -0.0288982 0
0.195351 -0.0359095 0
0.180069 -0.0330207 0
0.206556 -0.0374556 0
0.203564 -0.0326568 0
0.20061 -0.0372799 0
0.139758 -0.0242118 0
0.199511 -0.030601 0
0.203368 -0.0346069 0
0.196149 -0.0375751 0
0.0567204 -0.00767292 0
0.207128 -0.0391969 0
0.199428 -0.0326915 0
0.169298 -0.0320541 0
0.201084 -0.0394384 0
0.205437 -0.0386427 0
0.203086 -0.0369981 0
0.207159 -0.0412444 0
0.190739 -0.0380781 0
0.190799 -0.0381732 0
0.190858 -0.0382686 0
0.190946 -0.0384095 0
0.206124 -0.0414529 0
0.191033 -0.0385509 0
0.197044 -0.0398868 0
0.207023 -0.0418132 0
0.191159 -0.0387568 0
0.199286 -0.0352691 0
0.191283 -0.0389638 0
0.191457 -0.0392607 0
0.186134 -0.0380402 0
0.178564 -0.0360539 0
0.194491 -0.0319707 0
0.201397 -0.0416774 0
0.191628 -0.0395598 0
0.105087 -0.0165473 0
0.202761 -0.0393517 0
0.194491 -0.0324729 0
0.203978 -0.0425276 0
0.191862 -0.0399824 0
0.194491 -0.0329739 0
0.206003 -0.0430539 0
0.192089 -0.0404096 0
0.194488 -0.0335317 0
0.194484 -0.0340881 0
0.19239 -0.0410041 0
0.199049 -0.0384402 0
0.194477 -0.0347238 0
0.18749 -0.0399915 0
0.192678 -0.0416071 0
0.194467 -0.0353576 0
0.197915 -0.0430649 0
0.202306 -0.0421916 0
0.172845 -0.036105 0
0.194453 -0.0360992 0
0.167871 -0.034633 0
0.205134 -0.0454934 0
0.201547 -0.0445699 0
0.193046 -0.0424342 0
0.194436 -0.0368385 0
0.203903 -0.0452724 0
0.193389 -0.0432765 0
0.19441 -0.0377211 0
0.204736 -0.04681 0
0 0 0
0.19438 -0.0386004 0
0.19866 -0.0423091 0
0.201788 -0.0449785 0
0.193805 -0.0444153 0
0.194336 -0.0396659 0
0.176712 -0.0392867 0
0.201442 -0.0475498 0
0.194285 -0.0407263 0
0.194176 -0.0455796 0
0.180252 -0.0410276 0
0.198519 -0.0473774 0
0.194212 -0.0420226 0
0.187512 -0.0441773 0
0.187626 -0.0443685 0
0.187789 -0.0446523 0
0.183295 -0.0431317 0
0.20108 -0.0482796 0
0.194591 -0.0471302 0
0.203424 -0.0503856 0
0.188018 -0.0450673 0
0.194128 -0.0433109 0
0.202699 -0.050374 0
0.166273 -0.0372013 0