# vtk DataFile Version 3.0
File generated from DClib
ASCII

DATASET UNSTRUCTURED_GRID
POINTS 1909 float
50 0 0 
48.75 0 0 
50 1.66667 0 
47.5 0 0 
50 3.33333 0 
46.25 0 0 
50 5 0 
45 0 0 
43.75 0 0 
50 6.66667 0 
43 2 0 
42.5 0 0 
50 8.33333 0 
43 4.66667 0 
41.25 0 0 
41.075 2 0 
50 10 0 
40 0 0 
43 7.33333 0 
39.15 2 0 
38.75 0 0 
43 10 0 
37.5 0 0 
37.225 2 0 
36.25 0 0 
36 4 0 
35.3 2 0 
36 5 0 
35 0 0 
35.325 4 0 
36 6 0 
36 7 0 
34.65 4 0 
36 8 0 
33.75 0 0 
33.975 4 0 
36 9 0 
33.375 2 0 
33.3 4 0 
36 10 0 
32.5 0 0 
32.625 4 0 
33 6 0 
31.95 4 0 
33 7.45455 0 
31.45 2 0 
31.25 0 0 
31.95 6 0 
33 8.79545 0 
31.275 4 0 
33 10 0 
30.6 4 0 
30 0 0 
30.9 6 0 
29.925 4 0 
29.525 2 0 
29.85 6 0 
29.25 4 0 
28.75 0 0 
30 8 0 
30 8.45455 0 
28.575 4 0 
29.625 8 0 
30 8.90909 0 
28.8 6 0 
30 9.25 0 
29.782 8.90909 0 
30 9.59091 0 
29.9487 9.59091 0 
29.25 8 0 
29.7462 9.25 0 
30 9.79545 0 
29.897 9.59091 0 
29.564 8.90909 0 
29.9547 9.79545 0 
29.3462 8.45455 0 
29.84 9.59091 0 
30 10 0 
29.8975 9.79545 0 
29.9882 10 0 
29.9902 10.0098 0 
29.7827 9.59091 0 
29.9765 10 0 
29.9804 10.0196 0 
29.9667 10.0098 0 
29.9591 10 0 
29.9686 10.0196 0 
29.9659 10.0341 0 
29.9569 10.0196 0 
29.9418 10 0 
29.9395 10.0196 0 
29.9515 10.0485 0 
29.932 10.0098 0 
29.9424 10.0341 0 
29.8241 9.79545 0 
29.7181 9.59091 0 
29.9166 10 0 
29.9397 10.0485 0 
29.9222 10.0196 0 
29.9279 10.0485 0 
29.9305 10.0695 0 
29.8914 10 0 
29.9077 10.0341 0 
27.9 4 0 
29.897 10.0196 0 
29.9106 10.0485 0 
29.8817 10.0098 0 
29.907 10.0695 0 
29.8933 10.0485 0 
29.9095 10.0905 0 
29.8719 10.0196 0 
27.6 2 0 
29.8556 10 0 
29.8978 10.0905 0 
29.6531 9.59091 0 
29.3437 8.90909 0 
27.5 0 0 
29.8681 10.0485 0 
29.886 10.0905 0 
29.8574 10.0341 0 
29.4839 9.25 0 
29.8723 10.0695 0 
29.7289 9.79545 0 
29.836 10.0196 0 
29.8687 10.0905 0 
29.8197 10 0 
29.8797 10.1203 0 
29.843 10.0485 0 
29.8513 10.0905 0 
29.81 10.0098 0 
29.8561 10.1203 0 
29.8002 10.0196 0 
29.8221 10.0695 0 
29.8072 10.0485 0 
29.8262 10.0905 0 
29.5782 9.59091 0 
29.8498 10.1502 0 
29.7695 10 0 
29.7858 10.0341 0 
29.838 10.1502 0 
29.8215 10.1203 0 
29.8011 10.0905 0 
29.8262 10.1502 0 
29.7714 10.0485 0 
28.875 8 0 
29.75 10.0196 0 
29.8089 10.1502 0 
29.7654 10.0905 0 
29.7193 10 0 
29.7916 10.1502 0 
29.7505 10.0695 0 
29.8079 10.1921 0 
29.7713 10.1203 0 
29.7096 10.0098 0 
29.6047 9.79545 0 
29.503 9.59091 0 
29.7213 10.0485 0 
29.7665 10.1502 0 
29.6999 10.0196 0 
29.7844 10.1921 0 
29.7296 10.0905 0 
29.6856 10.0341 0 
29.7414 10.1502 0 
29.7497 10.1921 0 
29.6503 10 0 
29.7661 10.2339 0 
29.6712 10.0485 0 
29.6999 10.1203 0 
29.7543 10.2339 0 
29.6796 10.0905 0 
29.7057 10.1502 0 
29.7425 10.2339 0 
29.1235 8.90909 0 
29.6309 10.0196 0 
29.6504 10.0695 0 
29.4146 9.59091 0 
29.7252 10.2339 0 
29.6996 10.1921 0 
29.6701 10.1502 0 
29.7079 10.2339 0 
29.6296 10.0905 0 
29.5813 10 0 
29.6023 10.0485 0 
29.5716 10.0098 0 
29.6828 10.2339 0 
29.7086 10.2914 0 
29.2101 9.25 0 
29.562 10.0196 0 
29.6201 10.1502 0 
29.6578 10.2339 0 
29.4428 9.79545 0 
29.5999 10.1203 0 
29.6849 10.2914 0 
29.6283 10.1921 0 
29.5477 10.0341 0 
29.3259 9.59091 0 
29.5608 10.0905 0 
29.5335 10.0485 0 
29.6221 10.2339 0 
29.6503 10.2914 0 
29.5702 10.1502 0 
29.4881 10 0 
29.5128 10.0695 0 
29.6511 10.3489 0 
29.5866 10.2339 0 
29.6392 10.3489 0 
29.4689 10.0196 0 
29.6002 10.2914 0 
29.6273 10.3489 0 
29.4921 10.0905 0 
29.61 10.3489 0 
29.5286 10.1921 0 
29.5016 10.1502 0 
29.5368 10.2339 0 
29.5926 10.3489 0 
29.4405 10.0485 0 
29.2199 9.59091 0 
29.4626 10.1203 0 
29.3949 10 0 
28.9 8.90909 0 
29.5676 10.3489 0 
29.5291 10.2914 0 
29.3853 10.0098 0 
28.6923 8.45455 0 
29.487 10.2339 0 
29.5426 10.3489 0 
29.3758 10.0196 0 
29.5734 10.4266 0 
29.4331 10.1502 0 
29.3993 10.0905 0 
28.5 8 0 
29.3617 10.0341 0 
29.5496 10.4266 0 
29.5071 10.3489 0 
29.2327 9.79545 0 
29.3475 10.0485 0 
29.1136 9.59091 0 
29.4187 10.2339 0 
29.5148 10.4266 0 
29.4716 10.3489 0 
29.3918 10.1921 0 
29.3271 10.0695 0 
29.4298 10.2914 0 
29.2714 10 0 
29.3406 10.1502 0 
28.9208 9.25 0 
29.3066 10.0905 0 
29.4648 10.4266 0 
29.422 10.3489 0 
29.4958 10.5042 0 
29.2524 10.0196 0 
27.75 6 0 
29.3504 10.2339 0 
29.4837 10.5042 0 
29.4718 10.5042 0 
29.2774 10.1203 0 
29.4543 10.5042 0 
29.3724 10.3489 0 
29.2244 10.0485 0 
29.4369 10.5042 0 
29.3938 10.4266 0 
28.9853 9.59091 0 
29.2481 10.1502 0 
28.6766 8.90909 0 
29.4119 10.5042 0 
29.2934 10.2914 0 
27.225 4 0 
29.148 10 0 
29.2582 10.2339 0 
29.1837 10.0905 0 
29.3869 10.5042 0 
29.1385 10.0098 0 
29.3044 10.3489 0 
29.1291 10.0196 0 
29.2072 10.1921 0 
29.3514 10.5042 0 
29.1152 10.0341 0 
29.3929 10.6071 0 
29.2949 10.4266 0 
29.1013 10.0485 0 
29.3686 10.6071 0 
29.316 10.5042 0 
29.2364 10.3489 0 
28.9623 9.79545 0 
29.1257 10.1502 0 
29.1662 10.2339 0 
29.0811 10.0695 0 
28.8566 9.59091 0 
29.3336 10.6071 0 
29.2666 10.5042 0 
29.0609 10.0905 0 
28.9875 10 0 
29.2835 10.6071 0 
29.1448 10.3489 0 
29.0321 10.1203 0 
29.2173 10.5042 0 
29.1098 10.2914 0 
28.125 8 0 
28.9688 10.0196 0 
29.1594 10.4266 0 
28.611 9.25 0 
29.29 10.71 0 
28.4486 8.90909 0 
29.0443 10.2339 0 
29.0033 10.1502 0 
29.2777 10.71 0 
28.9413 10.0485 0 
29.2128 10.6071 0 
29.2655 10.71 0 
29.1497 10.5042 0 
29.2478 10.71 0 
28.7003 9.59091 0 
29.0533 10.3489 0 
29.2303 10.71 0 
28.9629 10.1921 0 
28.9013 10.0905 0 
29.2051 10.71 0 
29.0822 10.5042 0 
29.1801 10.71 0 
28.827 10 0 
29.1144 10.6071 0 
28.8177 10.0098 0 
28.9225 10.2339 0 
28.8085 10.0196 0 
29.1447 10.71 0 
28.7949 10.0341 0 
28.8443 10.1502 0 
28.977 10.4266 0 
28.9322 10.3489 0 
29.1094 10.71 0 
28.7813 10.0485 0 
28.9912 10.5042 0 
29.1562 10.8438 0 
28.5436 9.59091 0 
28.7615 10.0695 0 
28.8669 10.2914 0 
29.1313 10.8438 0 
28.6184 9.79545 0 
29.0602 10.71 0 
28.2207 8.90909 0 
28.7418 10.0905 0 
28.0378 8.45455 0 
28.9798 10.6071 0 
29.0958 10.8438 0 
29.0112 10.71 0 
28.9005 10.5042 0 
28.7136 10.1203 0 
28.7644 10.2339 0 
28.8113 10.3489 0 
29.0454 10.8438 0 
28.6223 10 0 
28.6854 10.1502 0 
28.2746 9.25 0 
28.9441 10.71 0 
28.6042 10.0196 0 
27.75 8 0 
28.9747 10.8438 0 
28.6459 10.1921 0 
28.5773 10.0485 0 
29.0225 10.9775 0 
28.3532 9.59091 0 
28.7804 10.5042 0 
28.736 10.4266 0 
28.8772 10.71 0 
29.0097 10.9775 0 
28.9971 10.9775 0 
28.799 10.6071 0 
28.9791 10.9775 0 
28.5384 10.0905 0 
28.6064 10.2339 0 
28.6543 10.3489 0 
28.9611 10.9775 0 
28.8769 10.8438 0 
27.9867 8.90909 0 
26.25 0 0 
28.9358 10.9775 0 
28.7871 10.71 0 
28.9106 10.9775 0 
28.6607 10.5042 0 
28.4177 10 0 
26.55 4 0 
28.552 10.2914 0 
28.483 10.1502 0 
28.4087 10.0098 0 
28.8751 10.9775 0 
28.3998 10.0196 0 
28.3866 10.0341 0 
28.8399 10.9775 0 
28.6974 10.71 0 
28.3735 10.0485 0 
28.1625 9.59091 0 
28.7436 10.8438 0 
28.4976 10.3489 0 
28.3543 10.0695 0 
28.791 10.9775 0 
28.4052 10.2339 0 
28.3352 10.0905 0 
28.8519 11.1481 0 
28.1869 9.79545 0 
28.5607 10.6071 0 
28.5053 10.5042 0 
28.7423 10.9775 0 
28.8258 11.1481 0 
28.308 10.1203 0 
28.5787 10.71 0 
27.904 9.25 0 
28.7893 11.1481 0 
28.424 10.4266 0 
27.7528 8.90909 0 
28.2807 10.1502 0 
28.6758 10.9775 0 
27.375 8 0 
28.7383 11.1481 0 
28.1619 10 0 
28.5649 10.8438 0 
28.2425 10.1921 0 
28.6096 10.9775 0 
28.1444 10.0196 0 
28.298 10.3489 0 
28.4605 10.71 0 
26.7 6 0 
27.9315 9.59091 0 
28.3503 10.5042 0 
28.6676 11.1481 0 
28.1187 10.0485 0 
28.2042 10.2339 0 
28.5207 10.9775 0 
28.0813 10.0905 0 
28.6814 11.3186 0 
27.3818 8.45455 0 
28.6679 11.3186 0 
28.1516 10.2914 0 
28.5703 11.1481 0 
28.6544 11.3186 0 
28.6358 11.3186 0 
27.5109 8.90909 0 
28.3072 10.71 0 
28.6173 11.3186 0 
28.2524 10.6071 0 
28.4322 10.9775 0 
28.028 10.1502 0 
28.5915 11.3186 0 
28.0989 10.3489 0 
28.33 10.8438 0 
28.5658 11.3186 0 
28.153 10.5042 0 
27.9061 10 0 
27.8975 10.0098 0 
28.5303 11.3186 0 
28.4384 11.1481 0 
27.7002 9.59091 0 
27.889 10.0196 0 
27.8765 10.0341 0 
28.4949 11.3186 0 
28.3154 10.9775 0 
27.9532 10.2339 0 
27.8639 10.0485 0 
28.0276 10.4266 0 
28.1544 10.71 0 
27.8457 10.0695 0 
27.4909 9.25 0 
28.4463 11.3186 0 
27 8 0 
27.8275 10.0905 0 
28.3979 11.3186 0 
27.8015 10.1203 0 
27.6542 9.79545 0 
25.675 2 0 
28.1991 10.9775 0 
27.2691 8.90909 0 
27.9563 10.5042 0 
28.4682 11.5318 0 
28.2625 11.1481 0 
27.7755 10.1502 0 
28.3322 11.3186 0 
27.8502 10.3489 0 
28.4401 11.5318 0 
25.875 4 0 
27.7391 10.1921 0 
28.4019 11.5318 0 
28.0268 10.8438 0 
28.2668 11.3186 0 
27.9602 10.71 0 
28.3498 11.5318 0 
27.4223 9.59091 0 
27.7026 10.2339 0 
27.5927 10 0 
28.0486 10.9775 0 
27.8616 10.6071 0 
27.5762 10.0196 0 
28.1794 11.3186 0 
28.2786 11.5318 0 
27.5519 10.0485 0 
27.6524 10.2914 0 
28.0319 11.1481 0 
27.7108 10.5042 0 
27.5167 10.0905 0 
27.0169 8.90909 0 
28.0924 11.3186 0 
27.6021 10.3489 0 
27.8988 10.9775 0 
28.1818 11.5318 0 
27.7667 10.71 0 
26.625 8 0 
28.255 11.745 0 
27.4664 10.1502 0 
28.2402 11.745 0 
28.2256 11.745 0 
28.2059 11.745 0 
27.978 11.3186 0 
26.7234 8.45455 0 
27.0259 9.25 0 
27.5342 10.4266 0 
28.1863 11.745 0 
27.1442 9.59091 0 
28.0516 11.5318 0 
28.1598 11.745 0 
27.3959 10.2339 0 
28.1334 11.745 0 
27.2793 10 0 
27.2714 10.0098 0 
27.2635 10.0196 0 
27.7086 10.9775 0 
27.6431 10.8438 0 
28.0975 11.745 0 
27.8643 11.3186 0 
27.4661 10.5042 0 
27.2518 10.0341 0 
27.2401 10.0485 0 
28.0617 11.745 0 
26.7648 8.90909 0 
27.5255 10.71 0 
27.7353 11.1481 0 
27.2231 10.0695 0 
28.0133 11.745 0 
27.2061 10.0905 0 
27.8791 11.5318 0 
27.2986 10.3489 0 
27.1818 10.1203 0 
27.9651 11.745 0 
27.3758 10.6071 0 
27.0077 9.79545 0 
27.7174 11.3186 0 
27.1576 10.1502 0 
25 0 0 
27.5193 10.9775 0 
27.9003 11.745 0 
27.1236 10.1921 0 
26.25 8 0 
27.9939 12.0061 0 
25.65 6 0 
27.8359 11.745 0 
26.8136 9.59091 0 
27.0896 10.2339 0 
27.9626 12.0061 0 
27.2853 10.71 0 
25.2 4 0 
27.5713 11.3186 0 
27.9218 12.0061 0 
26.4998 8.90909 0 
27.167 10.5042 0 
27.6541 11.5318 0 
27.0427 10.2914 0 
27.7503 11.745 0 
26.9033 10 0 
27.8677 12.0061 0 
26.8882 10.0196 0 
26.8659 10.0485 0 
26.9958 10.3489 0 
27.2836 10.9775 0 
27.6652 11.745 0 
27.3609 11.1481 0 
27.7955 12.0061 0 
26.499 9.25 0 
[...]
POINT_DATA 1909
SCALARS phi float 1
LOOKUP_TABLE default
VECTORS Displacement float
0 0 0
0 0 0
0 -0.000789494 0
0 0 0
0 -0.00107645 0
0 0 0
0 -0.000903993 0
0 0 0
0 0 0
0 -0.000323231 0
0.00233056 -0.000721245 0
0 0 0
0 0.000640324 0
0.0045682 -0.000443579 0
0 0 0
0.00312762 -0.000712772 0
0 0.00193669 0
0 0 0
0.00611725 0.0010235 0
0.00399508 -0.000724839 0
0 0 0
0.00703353 0.00332213 0
0 0 0
0.00491478 -0.000773172 0
0 0 0
0.00939017 -0.000548778 0
0.00583812 -0.000857506 0
0.0111774 -1.97188e-05 0
0 0 0
0.0100508 -0.00059544 0
0.0125341 0.000721043 0
0.0135119 0.00162663 0
0.0106928 -0.000651887 0
0.0141997 0.00262639 0
0 0 0
0.0113273 -0.000741522 0
0.0146318 0.0036842 0
0.00671237 -0.000972914 0
0.0119405 -0.00084281 0
0.0148544 0.0047474 0
0 0 0
0.0125208 -0.000963506 0
0.0162146 0.000242582 0
0.0130724 -0.00109573 0
0.0180035 0.00165829 0
0.00749008 -0.00111479 0
0 0 0
0.0174534 -0.00026765 0
0.0189364 0.00337439 0
0.0135829 -0.00124185 0
0.0189661 0.00518531 0
0.0140558 -0.00139891 0
0 0 0
0.0184847 -0.00077377 0
0.0144853 -0.00156752 0
0.00813001 -0.00128038 0
0.0193588 -0.00131227 0
0.0148695 -0.00174712 0
0 0 0
0.0226727 -0.000166615 0
0.0233078 0.000223172 0
0.0152085 -0.00193647 0
0.0230673 -0.000515918 0
0.0239295 0.000672566 0
0.0200808 -0.0018943 0
0.024325 0.00109626 0
0.0242182 0.000389006 0
0.0246572 0.00160339 0
0.0247484 0.00145006 0
0.0234156 -0.000866255 0
0.0246791 0.000669452 0
0.0247925 0.0019609 0
0.0248265 0.00131295 0
0.0244755 0.000104378 0
0.0248811 0.00175769 0
0.0240396 -0.000490609 0
0.0249013 0.00117766 0
0.0247706 0.00236941 0
0.0249834 0.00155756 0
0.0248085 0.00233943 0
0.0258496 0.00275468 0
0.0249708 0.00105782 0
0.0248523 0.00230547 0
0.0260894 0.00281057 0
0.0256982 0.00257749 0
0.0249179 0.00223169 0
0.0260618 0.00270884 0
0.0261316 0.00270292 0
0.0260327 0.00261574 0
0.0249845 0.00216025 0
0.0259691 0.00248408 0
0.0261433 0.00259618 0
0.0256027 0.00233816 0
0.0261071 0.00252444 0
0.0251067 0.00136608 0
0.0250505 0.000944062 0
0.025079 0.00204914 0
0.0261367 0.00251045 0
0.0259065 0.0023648 0
0.0261294 0.0024288 0
0.0261819 0.00245671 0
0.0251708 0.00195641 0
0.0260486 0.00229952 0
0.015496 -0.00213807 0
0.0258335 0.00220933 0
0.0261174 0.00231973 0
0.0255624 0.00206062 0
0.0261695 0.00230119 0
0.0261021 0.00222322 0
0.0262292 0.00232502 0
0.0257898 0.00208298 0
0.00859461 -0.00146829 0
0.0252934 0.00184277 0
0.0262234 0.00225117 0
0.0251314 0.000841818 0
0.0247185 -0.000169486 0
0 0 0
0.026081 0.00210785 0
0.0262181 0.00218548 0
0.0259641 0.00205632 0
0.0249876 0.000286085 0
0.0261523 0.00211962 0
0.0252687 0.00119182 0
0.0257639 0.00193513 0
0.0262111 0.00210059 0
0.0254097 0.00174821 0
0.0263089 0.00215635 0
0.0260605 0.00201076 0
0.0262068 0.00203013 0
0.0256291 0.00180106 0
0.026304 0.00204614 0
0.025779 0.00181786 0
0.0261342 0.00193579 0
0.0260445 0.00189184 0
0.0262034 0.00194448 0
0.0252285 0.000737027 0
0.0263953 0.00201903 0
0.0255569 0.00164317 0
0.0259304 0.00181172 0
0.026397 0.00197627 0
0.0263031 0.00192668 0
0.0262037 0.00186955 0
0.0263994 0.0019384 0
0.0260391 0.00178801 0
0.0237525 -0.00122345 0
0.0258248 0.00168326 0
0.0264039 0.00188935 0
0.0262094 0.00177571 0
0.0256919 0.00154477 0
0.0264092 0.00184446 0
0.0261336 0.00173663 0
0.0265616 0.00188623 0
0.0263135 0.00179266 0
0.0257997 0.00156043 0
0.0254867 0.00101841 0
0.0253307 0.000637793 0
0.0260518 0.00165737 0
0.0264181 0.00178497 0
0.0258932 0.00156607 0
0.0265647 0.00182909 0
0.0262215 0.00169022 0
0.0259959 0.00155692 0
0.0264286 0.00172983 0
0.0265742 0.00175472 0
0.0258528 0.00142764 0
0.0267229 0.0017872 0
0.026085 0.00154115 0
0.0263449 0.00163469 0
0.0267251 0.00176522 0
0.0262485 0.00158207 0
0.0264465 0.00165651 0
0.0267279 0.00174336 0
0.0249478 -0.000434417 0
0.0259909 0.00142713 0
0.0261895 0.00151174 0
0.0254507 0.000525135 0
0.026733 0.00171178 0
0.0265952 0.00165721 0
0.0264672 0.00158834 0
0.0267392 0.00168077 0
0.026285 0.00148414 0
0.0259907 0.00130188 0
0.0261528 0.00140273 0
0.0260454 0.00129882 0
0.0267491 0.00163712 0
0.0269481 0.00168316 0
0.0253005 -6.51391e-05 0
0.0260977 0.0012942 0
0.0265006 0.00149867 0
0.0267604 0.00159453 0
0.0257583 0.000804767 0
0.0264133 0.0014479 0
0.0269513 0.00164601 0
0.0266342 0.00153122 0
0.0261678 0.0012849 0
0.025574 0.000412203 0
0.0263464 0.00135888 0
0.0262341 0.00127436 0
0.0267779 0.00153545 0
0.0269592 0.00159197 0
0.0265363 0.00141311 0
0.0261451 0.00113988 0
0.0263263 0.00125716 0
0.0271511 0.00159249 0
0.0267969 0.00147736 0
0.0271526 0.00157588 0
0.0262279 0.00112939 0
0.0269756 0.00151433 0
0.0271546 0.00155918 0
0.0264144 0.00123847 0
0.0271579 0.00153437 0
0.0266997 0.00136507 0
0.0265918 0.00129625 0
0.0268257 0.0013966 0
0.027162 0.00150929 0
0.026348 0.00110976 0
0.0257141 0.000273809 0
0.0265347 0.00121015 0
0.0262782 0.000976463 0
0.0251693 -0.000698876 0
0.0271685 0.00147273 0
0.027006 0.0014035 0
0.0263166 0.000971164 0
0.0246456 -0.00118485 0
0.0268561 0.0013157 0
0.027176 0.00143563 0
0.0263549 0.000965595 0
0.0274029 0.00148082 0
0.0266497 0.00117999 0
0.0265133 0.00107593 0
0.0240539 -0.00159079 0
0.0264089 0.0009567 0
0.0274053 0.00144867 0
0.027188 0.00138214 0
0.02606 0.000507884 0
0.0264626 0.000947074 0
0.0258525 0.000131539 0
0.0269015 0.00120271 0
0.0274106 0.00140041 0
0.0272014 0.00132772 0
0.0268033 0.00113543 0
0.0265388 0.000931827 0
0.0270571 0.00124512 0
0.0264346 0.000776681 0
0.0267338 0.00102036 0
0.02562 -0.000428963 0
0.0266138 0.000915327 0
0.0274214 0.00132837 0
0.0272222 0.0012502 0
0.027626 0.00137126 0
0.0265015 0.000764004 0
0.0206403 -0.00252067 0
0.0269495 0.00108835 0
0.0276271 0.00135521 0
0.0276283 0.00133899 0
0.0267179 0.000889694 0
0.0276305 0.00131499 0
0.027245 0.00117119 0
0.0265998 0.000743211 0
0.0276331 0.00129065 0
0.0274417 0.00122191 0
0.0260087 -4.55859e-05 0
0.0268192 0.00086202 0
0.0253811 -0.000966511 0
0.0276373 0.00125495 0
0.0271387 0.00101999 0
0.0157357 -0.00234686 0
0.0265761 0.000573905 0
0.0270181 0.000931761 0
0.0267388 0.00070928 0
0.0276421 0.00121862 0
0.0266078 0.000566984 0
0.0272792 0.00106038 0
0.0266394 0.000559824 0
0.0269563 0.000820098 0
0.02765 0.00116598 0
0.0266849 0.000548934 0
0.0278876 0.00122522 0
0.0274775 0.00106664 0
0.0267301 0.000537597 0
0.0278896 0.00119181 0
0.0276589 0.00111227 0
0.027316 0.000947657 0
0.0263882 0.000104598 0
0.0269293 0.000654252 0
0.0270879 0.000774974 0
0.0267949 0.000520327 0
0.0261587 -0.000228161 0
0.0278935 0.00114229 0
0.027673 0.00103558 0
0.0268589 0.000502164 0
0.0267442 0.000313424 0
0.0279009 0.00106911 0
0.0273685 0.000793189 0
0.0269485 0.00047473 0
0.0276888 0.000957316 0
0.0272602 0.000708358 0
0.024334 -0.00196806 0
0.0268012 0.000297593 0
0.0275368 0.000844496 0
0.0259345 -0.000832823 0
0.028116 0.00107548 0
0.0255824 -0.00124483 0
0.0271805 0.000566081 0
0.0270362 0.000445641 0
0.0281169 0.00105812 0
0.0268847 0.000272871 0
0.0279145 0.000961764 0
0.0281179 0.00104069 0
0.0277127 0.000847486 0
0.0281195 0.00101525 0
0.0263262 -0.000455975 0
0.0274228 0.00063704 0
0.0281213 0.00098961 0
0.0271558 0.000402228 0
0.0270033 0.000234343 0
0.0281243 0.000952387 0
0.0277386 0.00073558 0
0.0281276 0.000914736 0
0.0268981 4.7931e-05 0
0.0279386 0.000806069 0
0.0269249 3.93032e-05 0
0.0272715 0.000355983 0
0.0269515 3.0526e-05 0
0.0281329 0.000860589 0
0.0269903 1.73205e-05 0
0.0271671 0.000174308 0
0.0276273 0.000534435 0
0.0274962 0.000427406 0
0.0281389 0.00080564 0
0.0270288 3.78562e-06 0
0.0277762 0.000581728 0
0.0283704 0.000874579 0
0.0264825 -0.000689285 0
0.0270841 -1.64224e-05 0
0.0274242 0.000288112 0
0.0283721 0.00083772 0
0.0267393 -0.000432945 0
0.0281483 0.000727604 0
0.0257679 -0.00153074 0
0.0271388 -3.72948e-05 0
0.0251454 -0.0019152 0
0.027979 0.000583752 0
0.0283751 0.000784233 0
0.0281588 0.000648229 0
0.0278158 0.000425363 0
0.0272155 -6.81718e-05 0
0.0273852 8.10652e-05 0
0.0275695 0.000215782 0
0.0283804 0.000706619 0
0.0270775 -0.00029416 0
0.0272908 -0.000100318 0
0.0262345 -0.00129095 0
0.0281746 0.000537214 0
0.027126 -0.000313175 0
0.0245768 -0.00235558 0
0.0283895 0.000594517 0
0.0273938 -0.00014741 0
0.0271967 -0.000342207 0
0.0285839 0.00066598 0
0.0266549 -0.000978567 0
0.0278701 0.000214773 0
0.027754 0.000111836 0
0.0281919 0.000424212 0
0.0285847 0.000646404 0
0.0285855 0.000626829 0
0.0280421 0.000272479 0
0.0285868 0.000598796 0
0.0272974 -0.000386305 0
0.0274939 -0.000196783 0
0.027663 -6.24525e-05 0
0.0285881 0.000570673 0
0.0284054 0.000433938 0
0.0259413 -0.0018299 0
0 0 0
0.0285903 0.000530447 0
0.0282171 0.00026894 0
0.0285927 0.000489964 0
0.0279253 1.41328e-06 0
0.0272395 -0.000641349 0
0.0159189 -0.00257063 0
0.0276265 -0.000268242 0
0.0274367 -0.000453075 0
0.027262 -0.000651534 0
0.0285963 0.000432426 0
0.0272843 -0.000661836 0
0.027317 -0.000677234 0
0.0286003 0.000374343 0
0.028244 0.000111031 0
0.0273495 -0.00069288 0
0.0268113 -0.00127289 0
0.0284315 0.000206669 0
0.0277534 -0.000343527 0
0.0273961 -0.000716004 0
0.0286064 0.000292615 0
0.0276231 -0.000553851 0
0.0274422 -0.000739636 0
0.0288035 0.000388482 0
0.027098 -0.00113159 0
0.028133 -0.000153571 0
0.027997 -0.000279835 0
0.0286131 0.0002099 0
0.028805 0.000346119 0
0.0275069 -0.000774181 0
0.0282812 -0.000101673 0
0.0265128 -0.0018139 0
0.0288074 0.000286246 0
0.0279155 -0.000450823 0
0.0260954 -0.00213574 0
0.0275705 -0.000809719 0
0.0286231 9.50152e-05 0
0.0247899 -0.00275233 0
0.0288112 0.000201225 0
0.02742 -0.00108027 0
0.0284725 -0.000109888 0
0.0276576 -0.000861113 0
0.028634 -2.14543e-05 0
0.0274605 -0.00110223 0
0.0278622 -0.000705162 0
0.0283194 -0.000317457 0
0.0210251 -0.00318899 0
0.0269791 -0.00163427 0
0.0280671 -0.000564084 0
0.0288174 8.06627e-05 0
0.0275196 -0.00113538 0
0.0277424 -0.000914352 0
0.0286497 -0.000180709 0
0.0276036 -0.00118498 0
0.0289723 9.78564e-05 0
0.0255354 -0.00268376 0
0.028973 7.48872e-05 0
0.027855 -0.000990483 0
0.0288274 -8.92881e-05 0
0.0289737 5.198e-05 0
0.0289747 2.00451e-05 0
0.0262359 -0.00245674 0
0.0283695 -0.000601974 0
0.0289758 -1.18835e-05 0
0.0282519 -0.000722503 0
0.0286663 -0.000342214 0
0.02772 -0.00125875 0
0.0289774 -5.66372e-05 0
0.0279631 -0.00106984 0
0.0285319 -0.000542102 0
0.028979 -0.000101493 0
0.0281523 -0.000930244 0
0.0275768 -0.00152335 0
0.0275953 -0.00153497 0
0.0289815 -0.000164253 0
0.0288432 -0.000326553 0
0.027125 -0.00199993 0
0.0276138 -0.00154667 0
0.0276408 -0.00156409 0
0.0289841 -0.000227309 0
0.0286892 -0.000559074 0
0.0278758 -0.00136788 0
0.0276677 -0.00158171 0
0.0281016 -0.00118188 0
0.0284188 -0.000889629 0
0.0277062 -0.0016076 0
0.0267612 -0.00241248 0
0.0289879 -0.000314931 0
0.024964 -0.00315732 0
0.0277442 -0.00163388 0
0.0289919 -0.00040316 0
0.0277977 -0.00167203 0
0.0274349 -0.00201493 0
0.00884749 -0.0016765 0
0.0287127 -0.000778728 0
0.0263563 -0.00278232 0
0.0282315 -0.0012992 0
0.0291185 -0.000283823 0
0.028867 -0.000653404 0
0.0278502 -0.00171097 0
0.0289977 -0.000524471 0
0.0280762 -0.0015285 0
0.0291198 -0.00033448 0
0.0160507 -0.00279715 0
0.0279221 -0.0017668 0
0.0291217 -0.000403705 0
0.02861 -0.00111855 0
0.0290038 -0.000646835 0
0.0284789 -0.00126028 0
0.0291244 -0.000499389 0
0.0272732 -0.00244323 0
0.027992 -0.00182414 0
0.0277386 -0.00207013 0
0.0287433 -0.00106772 0
0.0283904 -0.00146231 0
0.0277717 -0.0020948 0
0.0290123 -0.000812803 0
0.0291284 -0.000632095 0
0.0278199 -0.00213176 0
0.028085 -0.0019054 0
0.0289005 -0.001096 0
0.0283201 -0.00176327 0
0.0278884 -0.00218659 0
0.0264617 -0.00312536 0
0.029021 -0.000980357 0
0.0281743 -0.00198937 0
0.028773 -0.00135962 0
0.0291341 -0.000815658 0
0.0285343 -0.00163356 0
0.0251055 -0.00357055 0
0.0292017 -0.000685719 0
0.0279831 -0.00226718 0
0.0292023 -0.000713743 0
0.0292029 -0.000741652 0
0.0292037 -0.000779192 0
0.0290326 -0.00120394 0
0.0258055 -0.00348551 0
0.0269672 -0.00309873 0
0.0282886 -0.00210691 0
0.0292045 -0.000816645 0
0.0273927 -0.00288958 0
0.0291422 -0.00106772 0
0.0292057 -0.000867707 0
0.0281098 -0.00238478 0
0.0292068 -0.000918741 0
0.0278673 -0.00261917 0
0.0278823 -0.00263208 0
0.0278972 -0.00264507 0
0.0288084 -0.0017352 0
0.0286994 -0.00186741 0
0.0292083 -0.000988635 0
0.029044 -0.00142957 0
0.028396 -0.00222905 0
0.0279189 -0.00266434 0
0.0279405 -0.00268377 0
0.0292098 -0.00105861 0
0.0265464 -0.00347123 0
0.0285954 -0.00210302 0
0.0289422 -0.00168284 0
0.0279715 -0.00271222 0
0.0292119 -0.00115423 0
0.0280021 -0.00274098 0
0.029153 -0.00140998 0
0.0282723 -0.00255522 0
0.0280451 -0.00278253 0
0.0292139 -0.00125011 0
0.0285271 -0.00239769 0
0.0277046 -0.00310093 0
0.029058 -0.00172502 0
0.0280872 -0.00282472 0
0 0 0
0.02884 -0.00211308 0
0.0292165 -0.00138017 0
0.0281447 -0.00288485 0
0.0252075 -0.00398979 0
0.0292246 -0.00120523 0
0.0212259 -0.0038955 0
0.0292189 -0.00151076 0
0.0275002 -0.00342232 0
0.0282007 -0.00294622 0
0.0292258 -0.00126826 0
0.0286457 -0.0025737 0
0.016122 -0.00304291 0
0.0290706 -0.00202263 0
0.0292273 -0.0013509 0
0.0266142 -0.00383735 0
0.0284697 -0.00280059 0
0.0291658 -0.00186781 0
0.0282749 -0.0030326 0
0.029222 -0.00168594 0
0.0279806 -0.00327967 0
0.0292291 -0.00146132 0
0.0280069 -0.00330674 0
0.0280452 -0.00334714 0
0.0283459 -0.00312125 0
0.0288723 -0.0025878 0
0.0292246 -0.00186195 0
0.028985 -0.00244198 0
0.0292313 -0.00161029 0
0.0271131 -0.00388499 0
0.0280995 -0.0034067 0
0.0287812 -0.0028129 0
0.0290838 -0.0024042 0
0.0284367 -0.00324445 0
0.0292337 -0.0018117 0
0.0292273 -0.0020947 0
0.0281743 -0.00349357 0
0.028691 -0.00315092 0
0.0266609 -0.00420507 0
0.0259552 -0.00431219 0
0.0275708 -0.00395619 0
0.0291771 -0.0024688 0
0.0285215 -0.00337159 0
0.0252761 -0.00441504 0
0.0291714 -0.0017542 0
0.0282739 -0.00361908 0
0.0292291 -0.00232852 0
0.029172 -0.00178974 0
0.0292358 -0.00208292 0
0.0288955 -0.00306318 0
0.0291725 -0.00182512 0
0.029093 -0.00278729 0
0.0291731 -0.00187066 0
0.0291737 -0.00191604 0
0.0291744 -0.00197572 0
0.0280495 -0.00393911 0
0.0286245 -0.00354596 0
0.0280612 -0.00395314 0
0.0280728 -0.00396724 0
0.029175 -0.00203526 0
0.0280899 -0.00398813 0
0.0284009 -0.00379889 0
0.0292296 -0.00263246 0
0.0281068 -0.00400914 0
0.0291757 -0.00211449 0
0.028131 -0.00403983 0
0.0292364 -0.00244496 0
0.0291763 -0.00219363 0
0.0281549 -0.00407078 0
0.0281883 -0.00411533 0
0.0266878 -0.00459612 0
0.028717 -0.0037268 0
0.0291769 -0.00229935 0
0.0290114 -0.00339721 0
0.029098 -0.00326724 0
0.028221 -0.0041604 0
0.0292281 -0.0029374 0
0.0291772 -0.00240503 0
0.0289098 -0.0036455 0
0.027846 -0.00439774 0
0.0282655 -0.00422437 0
0.0291787 -0.0032401 0
0.0285534 -0.00405449 0
0.0291772 -0.00254584 0
0.027611 -0.00458164 0
0.0283087 -0.00428935 0
0.0253063 -0.00484405 0
0.0292329 -0.00292199 0
0.0161379 -0.0032837 0
0.0291768 -0.00268668 0
0.0288211 -0.00397119 0
0.0271744 -0.00478215 0
0.0283656 -0.00438035 0
0.0292225 -0.00332606 0
0.0290136 -0.00245099 0
0.0290945 -0.00374696 0
0.0291754 -0.00287289 0
0.0290147 -0.0025323 0
0.0284198 -0.00447322 0
0.0266928 -0.00498772 0
0.0290158 -0.002634 0
0.0280766 -0.00471166 0
0.028097 -0.00474073 0
0.0291732 -0.00305919 0
0.0289072 -0.00422559 0
0.0287212 -0.00441483 0
0.0290167 -0.00276441 0
0.0281266 -0.00478398 0
0.0284886 -0.00460153 0
0.0292125 -0.00371495 0
0.0281684 -0.00484749 0
0.0259882 -0.00515672 0
0.0292198 -0.00354002 0
0.0290173 -0.00293441 0
0.029169 -0.00330262 0
0.0285523 -0.00473317 0
0.0282257 -0.00493962 0
0.0212371 -0.00463492 0
0.0290778 -0.00433326 0
0.027605 -0.00520525 0
0.0290168 -0.00315781 0
0.029154 -0.00420448 0
0.0253037 -0.00527687 0
0.0291632 -0.00354607 0
0.0289911 -0.00456364 0
0.0283013 -0.00507176 0
0.0286286 -0.00491258 0
0.0266743 -0.00540574 0
0.0291934 -0.00419984 0
0.0290139 -0.00345159 0
0 0 0
0.0291533 -0.0038594 0
0.0288806 -0.00491771 0
0.0287683 -0.00318805 0
0.0283964 -0.0052594 0
0.0286959 -0.00509754 0
0.0287688 -0.00323457 0
0.0287692 -0.00328092 0
0.00885468 -0.00189859 0
0.0280472 -0.00547775 0
0.0287697 -0.00333767 0
0.0291876 -0.00432433 0
0.0280562 -0.00549268 0
0.0280651 -0.00550765 0
0.02877 -0.00339424 0
0.0290462 -0.00491617 0
0.0280781 -0.00552982 0
0.0290065 -0.00383587 0
0.0291406 -0.00417236 0
0.0287702 -0.00346544 0
0.028091 -0.00555208 0
0.0291662 -0.00468311 0
0.0281094 -0.00558454 0
0.0287703 -0.00353643 0
0.0281275 -0.00561721 0
0.0287696 -0.00534603 0
0.0287702 -0.00362749 0
0.0285085 -0.00552337 0
0.0281528 -0.00566412 0
0.0271205 -0.00579734 0
0.0160891 -0.00354875 0
0.0287699 -0.00371831 0
0.0266328 -0.00582318 0
0.0281775 -0.00571145 0
0.0252652 -0.00571128 0
0.0287691 -0.00383607 0
0.0282109 -0.00577843 0
0.0291203 -0.00456796 0
0.0275471 -0.00592022 0
0.0277872 -0.00589855 0
0.0287678 -0.00395355 0
0.0282431 -0.00584623 0
0.0289903 -0.00433333 0
0.0288278 -0.00560325 0
0.0287656 -0.00410637 0
0.0290759 -0.00537572 0
0.0282852 -0.00594079 0
0.0291214 -0.00527141 0
0.0259092 -0.00601373 0
0.0286275 -0.00589134 0
0.0289878 -0.00561018 0
0.0287627 -0.00425883 0
0.028325 -0.00603688 0
0.0290951 -0.00496216 0
0.02912 -0.0052957 0
0.0287578 -0.00445654 0
0.0283747 -0.00616901 0
0.0288796 -0.00594328 0
0.0265631 -0.00626972 0
0.0283731 -0.00410356 0
0.0289588 -0.00496784 0
0.0279478 -0.00635039 0
0.0287517 -0.00465371 0
0.0283741 -0.00421105 0
0.0279634 -0.0063809 0
0.0284201 -0.00630387 0
0.0279859 -0.00642623 0
0.0251957 -0.00614749 0
0.0283747 -0.00433903 0
0.0290568 -0.0054503 0
0.0290632 -0.00585481 0
0.0280174 -0.00649259 0
0.0287422 -0.00490733 0
0.0283748 -0.00449572 0
0.0284732 -0.0064867 0
0.0287315 -0.00639905 0
0.0280603 -0.00658846 0
0.0274344 -0.00662869 0
0.0289065 -0.00629615 0
0.0283737 -0.00469178 0
0.0287306 -0.00516004 0
0.0281163 -0.00672524 0
0.0285184 -0.00667415 0
0.0290105 -0.00593501 0
0.0283705 -0.00494058 0
0.0264693 -0.0067143 0
0.0289011 -0.00576207 0
0.0287129 -0.00548112 0
0.0281855 -0.00691813 0
0.0159828 -0.00379657 0
0.0210567 -0.00539833 0
0.0289753 -0.00654702 0
0.0285653 -0.00692456 0
0.0269166 -0.00693094 0
0.0283635 -0.00525833 0
0.0289923 -0.00646595 0
0.0289057 -0.00675409 0
0.0250936 -0.00658278 0
0.028692 -0.00580055 0
0.0282645 -0.0071872 0
0.0289431 -0.00652168 0
0.0277814 -0.00720825 0
0.027885 -0.00506924 0
0.0277882 -0.00722377 0
0.0277949 -0.00723934 0
0.0285989 -0.00718233 0
0.0257233 -0.00687822 0
0.0278854 -0.00513111 0
0.0287811 -0.00709072 0
0.0278048 -0.00726235 0
0.0283496 -0.00566391 0
0.0278146 -0.00728544 0
0.0278857 -0.00519282 0
0.0278285 -0.00731905 0
0.0278859 -0.00526469 0
0.0278422 -0.00735284 0
0.0286611 -0.00620001 0
0.0278858 -0.00533638 0
0.0278612 -0.00740126 0
0.0278856 -0.00542235 0
0.0278796 -0.00745003 0
0.0263414 -0.00718969 0
0.027885 -0.00550809 0
0.0272484 -0.007421 0
0.0288675 -0.00722947 0
0.0279045 -0.00751886 0
0.0288014 -0.00673403 0
0.0278841 -0.00561337 0
0.0283433 -0.00755863 0
0.0279282 -0.00758836 0
0.0286222 -0.00752123 0
0.0283241 -0.00617813 0
0.0278828 -0.00571834 0
0.0286251 -0.00659649 0
0.0288635 -0.00710152 0
0.0274564 -0.00757573 0
0 0 0
0.027959 -0.00768497 0
0.0278806 -0.00584943 0
0.0249624 -0.00701788 0
0.0279876 -0.00778282 0
0.0278779 -0.00598009 0
0.0278737 -0.00614485 0
0.0280228 -0.00791684 0
0.0286239 -0.00787105 0
0.0285735 -0.00708306 0
0.0278685 -0.00630898 0
0.0282797 -0.0068224 0
0.0280541 -0.00805305 0
0.0284017 -0.00806569 0
0.0287714 -0.00783343 0
0.026189 -0.00766114 0
0.0278608 -0.00651651 0
0.028752 -0.00778613 0
0.028715 -0.00801751 0
0.015807 -0.0040718 0
0.0280894 -0.00823686 0
0.0275204 -0.00815593 0
0.0278517 -0.00672308 0
0.0275326 -0.00818726 0
0.0285142 -0.00756437 0
0.0275499 -0.00823374 0
0.0272096 -0.00623772 0
0.028596 -0.00832276 0
0.0286372 -0.00789288 0
0.0275741 -0.00830164 0
0.0281179 -0.00842439 0
0.0278382 -0.00698339 0
0.0272104 -0.00638053 0
0.0270019 -0.00819947 0
0.0248028 -0.00744932 0
0.0276067 -0.00839945 0
0.0272106 -0.00654278 0
0.0254353 -0.00774499 0
0.0282053 -0.00761642 0
0.0265274 -0.00817287 0
0.0278224 -0.00724216 0
0.0276488 -0.0085384 0
0.0281444 -0.00867362 0
0.0272096 -0.00673211 0
0.0286231 -0.008459 0
0.028404 -0.00874911 0
0.0284316 -0.00814255 0
0.0272068 -0.00695842 0
0.0276996 -0.00873327 0