# vtk DataFile Version 3.0
File generated from DClib
ASCII

DATASET UNSTRUCTURED_GRID
POINTS 1909 float
50 0 0 
48.75 0 0 
50 1.66667 0 
47.5 0 0 
50 3.33333 0 
46.25 0 0 
50 5 0 
45 0 0 
43.75 0 0 
50 6.66667 0 
43 2 0 
42.5 0 0 
50 8.33333 0 
43 4.66667 0 
41.25 0 0 
41.075 2 0 
50 10 0 
40 0 0 
43 7.33333 0 
39.15 2 0 
38.75 0 0 
43 10 0 
37.5 0 0 
37.225 2 0 
36.25 0 0 
36 4 0 
35.3 2 0 
36 5 0 
35 0 0 
35.325 4 0 
36 6 0 
36 7 0 
34.65 4 0 
36 8 0 
33.75 0 0 
33.975 4 0 
36 9 0 
33.375 2 0 
33.3 4 0 
36 10 0 
32.5 0 0 
32.625 4 0 
33 6 0 
31.95 4 0 
33 7.45455 0 
31.45 2 0 
31.25 0 0 
31.95 6 0 
33 8.79545 0 
31.275 4 0 
33 10 0 
30.6 4 0 
30 0 0 
30.9 6 0 
29.925 4 0 
29.525 2 0 
29.85 6 0 
29.25 4 0 
28.75 0 0 
30 8 0 
30 8.45455 0 
28.575 4 0 
29.625 8 0 
30 8.90909 0 
28.8 6 0 
30 9.25 0 
29.782 8.90909 0 
30 9.59091 0 
29.9487 9.59091 0 
29.25 8 0 
29.7462 9.25 0 
30 9.79545 0 
29.897 9.59091 0 
29.564 8.90909 0 
29.9547 9.79545 0 
29.3462 8.45455 0 
29.84 9.59091 0 
30 10 0 
29.8975 9.79545 0 
29.9882 10 0 
29.9902 10.0098 0 
29.7827 9.59091 0 
29.9765 10 0 
29.9804 10.0196 0 
29.9667 10.0098 0 
29.9591 10 0 
29.9686 10.0196 0 
29.9659 10.0341 0 
29.9569 10.0196 0 
29.9418 10 0 
29.9395 10.0196 0 
29.9515 10.0485 0 
29.932 10.0098 0 
29.9424 10.0341 0 
29.8241 9.79545 0 
29.7181 9.59091 0 
29.9166 10 0 
29.9397 10.0485 0 
29.9222 10.0196 0 
29.9279 10.0485 0 
29.9305 10.0695 0 
29.8914 10 0 
29.9077 10.0341 0 
27.9 4 0 
29.897 10.0196 0 
29.9106 10.0485 0 
29.8817 10.0098 0 
29.907 10.0695 0 
29.8933 10.0485 0 
29.9095 10.0905 0 
29.8719 10.0196 0 
27.6 2 0 
29.8556 10 0 
29.8978 10.0905 0 
29.6531 9.59091 0 
29.3437 8.90909 0 
27.5 0 0 
29.8681 10.0485 0 
29.886 10.0905 0 
29.8574 10.0341 0 
29.4839 9.25 0 
29.8723 10.0695 0 
29.7289 9.79545 0 
29.836 10.0196 0 
29.8687 10.0905 0 
29.8197 10 0 
29.8797 10.1203 0 
29.843 10.0485 0 
29.8513 10.0905 0 
29.81 10.0098 0 
29.8561 10.1203 0 
29.8002 10.0196 0 
29.8221 10.0695 0 
29.8072 10.0485 0 
29.8262 10.0905 0 
29.5782 9.59091 0 
29.8498 10.1502 0 
29.7695 10 0 
29.7858 10.0341 0 
29.838 10.1502 0 
29.8215 10.1203 0 
29.8011 10.0905 0 
29.8262 10.1502 0 
29.7714 10.0485 0 
28.875 8 0 
29.75 10.0196 0 
29.8089 10.1502 0 
29.7654 10.0905 0 
29.7193 10 0 
29.7916 10.1502 0 
29.7505 10.0695 0 
29.8079 10.1921 0 
29.7713 10.1203 0 
29.7096 10.0098 0 
29.6047 9.79545 0 
29.503 9.59091 0 
29.7213 10.0485 0 
29.7665 10.1502 0 
29.6999 10.0196 0 
29.7844 10.1921 0 
29.7296 10.0905 0 
29.6856 10.0341 0 
29.7414 10.1502 0 
29.7497 10.1921 0 
29.6503 10 0 
29.7661 10.2339 0 
29.6712 10.0485 0 
29.6999 10.1203 0 
29.7543 10.2339 0 
29.6796 10.0905 0 
29.7057 10.1502 0 
29.7425 10.2339 0 
29.1235 8.90909 0 
29.6309 10.0196 0 
29.6504 10.0695 0 
29.4146 9.59091 0 
29.7252 10.2339 0 
29.6996 10.1921 0 
29.6701 10.1502 0 
29.7079 10.2339 0 
29.6296 10.0905 0 
29.5813 10 0 
29.6023 10.0485 0 
29.5716 10.0098 0 
29.6828 10.2339 0 
29.7086 10.2914 0 
29.2101 9.25 0 
29.562 10.0196 0 
29.6201 10.1502 0 
29.6578 10.2339 0 
29.4428 9.79545 0 
29.5999 10.1203 0 
29.6849 10.2914 0 
29.6283 10.1921 0 
29.5477 10.0341 0 
29.3259 9.59091 0 
29.5608 10.0905 0 
29.5335 10.0485 0 
29.6221 10.2339 0 
29.6503 10.2914 0 
29.5702 10.1502 0 
29.4881 10 0 
29.5128 10.0695 0 
29.6511 10.3489 0 
29.5866 10.2339 0 
29.6392 10.3489 0 
29.4689 10.0196 0 
29.6002 10.2914 0 
29.6273 10.3489 0 
29.4921 10.0905 0 
29.61 10.3489 0 
29.5286 10.1921 0 
29.5016 10.1502 0 
29.5368 10.2339 0 
29.5926 10.3489 0 
29.4405 10.0485 0 
29.2199 9.59091 0 
29.4626 10.1203 0 
29.3949 10 0 
28.9 8.90909 0 
29.5676 10.3489 0 
29.5291 10.2914 0 
29.3853 10.0098 0 
28.6923 8.45455 0 
29.487 10.2339 0 
29.5426 10.3489 0 
29.3758 10.0196 0 
29.5734 10.4266 0 
29.4331 10.1502 0 
29.3993 10.0905 0 
28.5 8 0 
29.3617 10.0341 0 
29.5496 10.4266 0 
29.5071 10.3489 0 
29.2327 9.79545 0 
29.3475 10.0485 0 
29.1136 9.59091 0 
29.4187 10.2339 0 
29.5148 10.4266 0 
29.4716 10.3489 0 
29.3918 10.1921 0 
29.3271 10.0695 0 
29.4298 10.2914 0 
29.2714 10 0 
29.3406 10.1502 0 
28.9208 9.25 0 
29.3066 10.0905 0 
29.4648 10.4266 0 
29.422 10.3489 0 
29.4958 10.5042 0 
29.2524 10.0196 0 
27.75 6 0 
29.3504 10.2339 0 
29.4837 10.5042 0 
29.4718 10.5042 0 
29.2774 10.1203 0 
29.4543 10.5042 0 
29.3724 10.3489 0 
29.2244 10.0485 0 
29.4369 10.5042 0 
29.3938 10.4266 0 
28.9853 9.59091 0 
29.2481 10.1502 0 
28.6766 8.90909 0 
29.4119 10.5042 0 
29.2934 10.2914 0 
27.225 4 0 
29.148 10 0 
29.2582 10.2339 0 
29.1837 10.0905 0 
29.3869 10.5042 0 
29.1385 10.0098 0 
29.3044 10.3489 0 
29.1291 10.0196 0 
29.2072 10.1921 0 
29.3514 10.5042 0 
29.1152 10.0341 0 
29.3929 10.6071 0 
29.2949 10.4266 0 
29.1013 10.0485 0 
29.3686 10.6071 0 
29.316 10.5042 0 
29.2364 10.3489 0 
28.9623 9.79545 0 
29.1257 10.1502 0 
29.1662 10.2339 0 
29.0811 10.0695 0 
28.8566 9.59091 0 
29.3336 10.6071 0 
29.2666 10.5042 0 
29.0609 10.0905 0 
28.9875 10 0 
29.2835 10.6071 0 
29.1448 10.3489 0 
29.0321 10.1203 0 
29.2173 10.5042 0 
29.1098 10.2914 0 
28.125 8 0 
28.9688 10.0196 0 
29.1594 10.4266 0 
28.611 9.25 0 
29.29 10.71 0 
28.4486 8.90909 0 
29.0443 10.2339 0 
29.0033 10.1502 0 
29.2777 10.71 0 
28.9413 10.0485 0 
29.2128 10.6071 0 
29.2655 10.71 0 
29.1497 10.5042 0 
29.2478 10.71 0 
28.7003 9.59091 0 
29.0533 10.3489 0 
29.2303 10.71 0 
28.9629 10.1921 0 
28.9013 10.0905 0 
29.2051 10.71 0 
29.0822 10.5042 0 
29.1801 10.71 0 
28.827 10 0 
29.1144 10.6071 0 
28.8177 10.0098 0 
28.9225 10.2339 0 
28.8085 10.0196 0 
29.1447 10.71 0 
28.7949 10.0341 0 
28.8443 10.1502 0 
28.977 10.4266 0 
28.9322 10.3489 0 
29.1094 10.71 0 
28.7813 10.0485 0 
28.9912 10.5042 0 
29.1562 10.8438 0 
28.5436 9.59091 0 
28.7615 10.0695 0 
28.8669 10.2914 0 
29.1313 10.8438 0 
28.6184 9.79545 0 
29.0602 10.71 0 
28.2207 8.90909 0 
28.7418 10.0905 0 
28.0378 8.45455 0 
28.9798 10.6071 0 
29.0958 10.8438 0 
29.0112 10.71 0 
28.9005 10.5042 0 
28.7136 10.1203 0 
28.7644 10.2339 0 
28.8113 10.3489 0 
29.0454 10.8438 0 
28.6223 10 0 
28.6854 10.1502 0 
28.2746 9.25 0 
28.9441 10.71 0 
28.6042 10.0196 0 
27.75 8 0 
28.9747 10.8438 0 
28.6459 10.1921 0 
28.5773 10.0485 0 
29.0225 10.9775 0 
28.3532 9.59091 0 
28.7804 10.5042 0 
28.736 10.4266 0 
28.8772 10.71 0 
29.0097 10.9775 0 
28.9971 10.9775 0 
28.799 10.6071 0 
28.9791 10.9775 0 
28.5384 10.0905 0 
28.6064 10.2339 0 
28.6543 10.3489 0 
28.9611 10.9775 0 
28.8769 10.8438 0 
27.9867 8.90909 0 
26.25 0 0 
28.9358 10.9775 0 
28.7871 10.71 0 
28.9106 10.9775 0 
28.6607 10.5042 0 
28.4177 10 0 
26.55 4 0 
28.552 10.2914 0 
28.483 10.1502 0 
28.4087 10.0098 0 
28.8751 10.9775 0 
28.3998 10.0196 0 
28.3866 10.0341 0 
28.8399 10.9775 0 
28.6974 10.71 0 
28.3735 10.0485 0 
28.1625 9.59091 0 
28.7436 10.8438 0 
28.4976 10.3489 0 
28.3543 10.0695 0 
28.791 10.9775 0 
28.4052 10.2339 0 
28.3352 10.0905 0 
28.8519 11.1481 0 
28.1869 9.79545 0 
28.5607 10.6071 0 
28.5053 10.5042 0 
28.7423 10.9775 0 
28.8258 11.1481 0 
28.308 10.1203 0 
28.5787 10.71 0 
27.904 9.25 0 
28.7893 11.1481 0 
28.424 10.4266 0 
27.7528 8.90909 0 
28.2807 10.1502 0 
28.6758 10.9775 0 
27.375 8 0 
28.7383 11.1481 0 
28.1619 10 0 
28.5649 10.8438 0 
28.2425 10.1921 0 
28.6096 10.9775 0 
28.1444 10.0196 0 
28.298 10.3489 0 
28.4605 10.71 0 
26.7 6 0 
27.9315 9.59091 0 
28.3503 10.5042 0 
28.6676 11.1481 0 
28.1187 10.0485 0 
28.2042 10.2339 0 
28.5207 10.9775 0 
28.0813 10.0905 0 
28.6814 11.3186 0 
27.3818 8.45455 0 
28.6679 11.3186 0 
28.1516 10.2914 0 
28.5703 11.1481 0 
28.6544 11.3186 0 
28.6358 11.3186 0 
27.5109 8.90909 0 
28.3072 10.71 0 
28.6173 11.3186 0 
28.2524 10.6071 0 
28.4322 10.9775 0 
28.028 10.1502 0 
28.5915 11.3186 0 
28.0989 10.3489 0 
28.33 10.8438 0 
28.5658 11.3186 0 
28.153 10.5042 0 
27.9061 10 0 
27.8975 10.0098 0 
28.5303 11.3186 0 
28.4384 11.1481 0 
27.7002 9.59091 0 
27.889 10.0196 0 
27.8765 10.0341 0 
28.4949 11.3186 0 
28.3154 10.9775 0 
27.9532 10.2339 0 
27.8639 10.0485 0 
28.0276 10.4266 0 
28.1544 10.71 0 
27.8457 10.0695 0 
27.4909 9.25 0 
28.4463 11.3186 0 
27 8 0 
27.8275 10.0905 0 
28.3979 11.3186 0 
27.8015 10.1203 0 
27.6542 9.79545 0 
25.675 2 0 
28.1991 10.9775 0 
27.2691 8.90909 0 
27.9563 10.5042 0 
28.4682 11.5318 0 
28.2625 11.1481 0 
27.7755 10.1502 0 
28.3322 11.3186 0 
27.8502 10.3489 0 
28.4401 11.5318 0 
25.875 4 0 
27.7391 10.1921 0 
28.4019 11.5318 0 
28.0268 10.8438 0 
28.2668 11.3186 0 
27.9602 10.71 0 
28.3498 11.5318 0 
27.4223 9.59091 0 
27.7026 10.2339 0 
27.5927 10 0 
28.0486 10.9775 0 
27.8616 10.6071 0 
27.5762 10.0196 0 
28.1794 11.3186 0 
28.2786 11.5318 0 
27.5519 10.0485 0 
27.6524 10.2914 0 
28.0319 11.1481 0 
27.7108 10.5042 0 
27.5167 10.0905 0 
27.0169 8.90909 0 
28.0924 11.3186 0 
27.6021 10.3489 0 
27.8988 10.9775 0 
28.1818 11.5318 0 
27.7667 10.71 0 
26.625 8 0 
28.255 11.745 0 
27.4664 10.1502 0 
28.2402 11.745 0 
28.2256 11.745 0 
28.2059 11.745 0 
27.978 11.3186 0 
26.7234 8.45455 0 
27.0259 9.25 0 
27.5342 10.4266 0 
28.1863 11.745 0 
27.1442 9.59091 0 
28.0516 11.5318 0 
28.1598 11.745 0 
27.3959 10.2339 0 
28.1334 11.745 0 
27.2793 10 0 
27.2714 10.0098 0 
27.2635 10.0196 0 
27.7086 10.9775 0 
27.6431 10.8438 0 
28.0975 11.745 0 
27.8643 11.3186 0 
27.4661 10.5042 0 
27.2518 10.0341 0 
27.2401 10.0485 0 
28.0617 11.745 0 
26.7648 8.90909 0 
27.5255 10.71 0 
27.7353 11.1481 0 
27.2231 10.0695 0 
28.0133 11.745 0 
27.2061 10.0905 0 
27.8791 11.5318 0 
27.2986 10.3489 0 
27.1818 10.1203 0 
27.9651 11.745 0 
27.3758 10.6071 0 
27.0077 9.79545 0 
27.7174 11.3186 0 
27.1576 10.1502 0 
25 0 0 
27.5193 10.9775 0 
27.9003 11.745 0 
27.1236 10.1921 0 
26.25 8 0 
27.9939 12.0061 0 
25.65 6 0 
27.8359 11.745 0 
26.8136 9.59091 0 
27.0896 10.2339 0 
27.9626 12.0061 0 
27.2853 10.71 0 
25.2 4 0 
27.5713 11.3186 0 
27.9218 12.0061 0 
26.4998 8.90909 0 
27.167 10.5042 0 
27.6541 11.5318 0 
27.0427 10.2914 0 
27.7503 11.745 0 
26.9033 10 0 
27.8677 12.0061 0 
26.8882 10.0196 0 
26.8659 10.0485 0 
26.9958 10.3489 0 
27.2836 10.9775 0 
27.6652 11.745 0 
27.3609 11.1481 0 
27.7955 12.0061 0 
26.499 9.25 0 
[...]
POINT_DATA 1909
SCALARS phi float 1
LOOKUP_TABLE default
VECTORS Displacement float
0 0 0
0 0 0
0 -0.00599481 0
0 0 0
0 -0.0082868 0
0 0 0
0 -0.00717977 0
0 0 0
0 0 0
0 -0.00301788 0
0.0170064 -0.00519374 0
0 0 0
0 0.00393906 0
0.0329777 -0.00309022 0
0 0 0
0.0230861 -0.00508462 0
0 0.0128566 0
0 0 0
0.0437624 0.00730962 0
0.0297713 -0.00515704 0
0 0 0
0.0495091 0.0238412 0
0 0 0
0.0369229 -0.00553705 0
0 0 0
0.0699589 -0.0034032 0
0.0441465 -0.00622978 0
0.0824069 0.000856321 0
0 0 0
0.0750561 -0.00375806 0
0.0913143 0.0065851 0
0.0970553 0.0134296 0
0.0800672 -0.00420289 0
0.100511 0.0206434 0
0 0 0
0.0850541 -0.00491546 0
0.103243 0.0282293 0
0.0509823 -0.007192 0
0.0899037 -0.00573295 0
0.105827 0.0372307 0
0 0 0
0.0945232 -0.00672234 0
0.12076 0.00350505 0
0.0989133 -0.00781265 0
0.13227 0.0158116 0
0.0569995 -0.00836828 0
0 0 0
0.130956 -0.000493431 0
0.137235 0.0325909 0
0.102981 -0.0090276 0
0.138256 0.0566086 0
0.106727 -0.010333 0
0 0 0
0.139578 -0.00467721 0
0.110105 -0.0117297 0
0.0618404 -0.00971322 0
0.146863 -0.00922994 0
0.11309 -0.0132105 0
0 0 0
0.171874 0.00175775 0
0.176849 0.00566782 0
0.115691 -0.0147552 0
0.17546 -0.00133092 0
0.181726 0.0106333 0
0.152776 -0.0141306 0
0.185413 0.0176897 0
0.184333 0.00756325 0
0.189231 0.0277374 0
0.190031 0.0253757 0
0.178622 -0.00450064 0
0.188871 0.0123043 0
0.190163 0.0346667 0
0.190805 0.0234 0
0.186679 0.00482347 0
0.190935 0.0322814 0
0.183496 -0.000867157 0
0.191565 0.0214098 0
0.190465 0.0425544 0
0.191956 0.0295103 0
0.190818 0.0426944 0
0.295189 0.0803703 0
0.19227 0.0196508 0
0.19122 0.0426544 0
0.376096 0.108417 0
0.293203 0.0792427 0
0.191844 0.0425438 0
0.374096 0.107274 0
0.380294 0.107971 0
0.371789 0.105888 0
0.192523 0.0422894 0
0.367837 0.103934 0
0.380418 0.106823 0
0.289606 0.0769687 0
0.378465 0.105661 0
0.193337 0.0265019 0
0.192987 0.0178686 0
0.193526 0.0415901 0
0.380238 0.10581 0
0.36376 0.101796 0
0.38009 0.104888 0
0.380756 0.105522 0
0.194564 0.0408404 0
0.374241 0.102526 0
0.117853 -0.016388 0
0.357899 0.098612 0
0.379627 0.103732 0
0.284534 0.0728878 0
0.380523 0.103831 0
0.379003 0.10248 0
0.380111 0.104124 0
0.352166 0.0954027 0
0.0652171 -0.0111987 0
0.19598 0.0393209 0
0.38005 0.103309 0
0.193643 0.0162303 0
0.188964 0.00227829 0
0 0 0
0.377629 0.100551 0
0.379967 0.102478 0
0.366998 0.0975451 0
0.19196 0.00815225 0
0.380036 0.101314 0
0.195147 0.0232919 0
0.344556 0.0906472 0
0.379819 0.101189 0
0.197368 0.0378646 0
0.379276 0.102226 0
0.37569 0.0984104 0
0.379657 0.0998473 0
0.277957 0.0664858 0
0.379131 0.100461 0
0.337141 0.0860434 0
0.378523 0.0972168 0
0.372377 0.0950256 0
0.379356 0.0978246 0
0.194343 0.0145092 0
0.378207 0.100142 0
0.199128 0.035549 0
0.35599 0.0896336 0
0.378125 0.0992197 0
0.37888 0.0977082 0
0.379009 0.095754 0
0.37804 0.0982766 0
0.368405 0.0915143 0
0.18164 -0.0076877 0
0.32744 0.0796263 0
0.377904 0.0968652 0
0.378236 0.0927982 0
0.200744 0.0333847 0
0.377762 0.095437 0
0.374473 0.0909006 0
0.376681 0.0970764 0
0.378447 0.0935755 0
0.269366 0.0576651 0
0.197376 0.0198518 0
0.19499 0.0128768 0
0.362332 0.086403 0
0.377545 0.0933495 0
0.318083 0.0735687 0
0.37652 0.0951288 0
0.377141 0.0898123 0
0.340103 0.0784388 0
0.377321 0.0912704 0
0.376265 0.0922391 0
0.202675 0.0305158 0
0.375128 0.0938963 0
0.355681 0.0813351 0
0.377505 0.0877003 0
0.375035 0.0928998 0
0.374961 0.0856643 0
0.376993 0.0883336 0
0.374941 0.0919082 0
0.191073 -0.000217571 0
0.305991 0.0656906 0
0.366002 0.0818459 0
0.195738 0.0111242 0
0.374803 0.0904557 0
0.37587 0.0881021 0
0.376669 0.0854743 0
0.374664 0.0890177 0
0.372048 0.0815185 0
0.204318 0.0278269 0
0.346089 0.0744804 0
0.258164 0.0467655 0
0.374466 0.0869618 0
0.37305 0.089485 0
0.194774 0.00425712 0
0.294573 0.0583868 0
0.376075 0.0816103 0
0.374269 0.0849462 0
0.199938 0.0161275 0
0.374826 0.0798163 0
0.372875 0.0875186 0
0.375302 0.0824552 0
0.318269 0.0641091 0
0.196464 0.00944129 0
0.366994 0.0759646 0
0.336075 0.0678278 0
0.373989 0.0821495 0
0.372615 0.0846924 0
0.375327 0.0779041 0
0.206189 0.0246863 0
0.350903 0.0697246 0
0.371027 0.0851453 0
0.373711 0.0794446 0
0.370937 0.0841759 0
0.280343 0.0495508 0
0.372239 0.0807526 0
0.370847 0.0832195 0
0.360967 0.0704586 0
0.370716 0.0818356 0
0.374458 0.0751257 0
0.373673 0.0730744 0
0.373334 0.0757982 0
0.370586 0.0804779 0
0.322189 0.0593859 0
0.197344 0.00758237 0
0.367861 0.0696781 0
0.207673 0.0217115 0
0.193092 -0.00270601 0
0.370402 0.0785539 0
0.371715 0.0754584 0
0.244428 0.034508 0
0.188892 -0.00724148 0
0.372976 0.0723334 0
0.370219 0.0766807 0
0.267669 0.0416375 0
0.368485 0.0794973 0
0.371322 0.0683863 0
0.351458 0.0633546 0
0.184288 -0.0109811 0
0.29013 0.0473346 0
0.368318 0.0776557 0
0.369966 0.0740929 0
0.202683 0.0119713 0
0.308176 0.0513043 0
0.198249 0.00580386 0
0.372432 0.0677994 0
0.368075 0.0750472 0
0.36972 0.0715974 0
0.372391 0.0659984 0
0.326703 0.0544429 0
0.371023 0.0686402 0
0.2093 0.0184068 0
0.366755 0.0624164 0
0.197412 0.000349219 0
0.34076 0.0563022 0
0.36773 0.0714458 0
0.369382 0.0682468 0
0.36598 0.0740957 0
0.253278 0.0327624 0
0.157243 -0.0193089 0
0.371812 0.0635389 0
0.365904 0.07321 0
0.365828 0.0723388 0
0.352974 0.05683 0
0.365718 0.0710861 0
0.369053 0.0650439 0
0.290059 0.0416455 0
0.365608 0.0698591 0
0.367249 0.0666268 0
0.199343 0.00376735 0
0.360889 0.0565135 0
0.194965 -0.00520151 0
0.365452 0.0681277 0
0.370147 0.0601862 0
0.119615 -0.0180548 0
0.210548 0.0152529 0
0.370383 0.0581332 0
0.325029 0.0475689 0
0.365297 0.0664415 0
0.230306 0.0220048 0
0.368617 0.060847 0
0.242101 0.025412 0
0.366076 0.0549066 0
0.365077 0.0641124 0
0.258667 0.029683 0
0.362951 0.0673739 0
0.366603 0.0603844 0
0.273276 0.032904 0
0.362807 0.0657145 0
0.364859 0.0618586 0
0.368202 0.0568765 0
0.205402 0.0070949 0
0.35086 0.0491579 0
0.368225 0.0529666 0
0.292186 0.0365002 0
0.200464 0.00180239 0
0.3626 0.063382 0
0.364555 0.0588179 0
0.308231 0.0390123 0
0.211861 0.0116587 0
0.362304 0.0601664 0
0.367638 0.0517888 0
0.325535 0.0408698 0
0.364255 0.0558974 0
0.368275 0.0499975 0
0.186699 -0.0142613 0
0.231347 0.0176823 0
0.365769 0.0525707 0
0.199879 -0.00375235 0
0.359953 0.0610209 0
0.196686 -0.00777749 0
0.363682 0.0465917 0
0.338752 0.0417478 0
0.359892 0.0602281 0
0.254702 0.0231642 0
0.361889 0.0558446 0
0.359831 0.0594475 0
0.363846 0.0520605 0
0.359743 0.0583338 0
0.201804 -0.000499069 0
0.367025 0.0470477 0
0.359655 0.0572406 0
0.350266 0.0413844 0
0.286574 0.0290322 0
0.359528 0.0557033 0
0.363447 0.0484088 0
0.3594 0.0542009 0
0.212891 0.00823208 0
0.361319 0.0502101 0
0.219888 0.010498 0
0.357479 0.0403769 0
0.22471 0.0117969 0
0.359218 0.0521267 0
0.232607 0.0137545 0
0.320328 0.0329749 0
0.364775 0.0431597 0
0.365617 0.0411918 0
0.359035 0.0501128 0
0.240857 0.0155653 0
0.362931 0.0437492 0
0.356311 0.0532973 0
0.203128 -0.00274794 0
0.254065 0.0182236 0
0.361935 0.0381576 0
0.356197 0.0518035 0
0.207917 0.00119195 0
0.358777 0.0473948 0
0.198274 -0.0103478 0
0.266942 0.0203748 0
0.193189 -0.0137466 0
0.36056 0.0431239 0
0.356032 0.0497249 0
0.358519 0.0447798 0
0.362452 0.0393814 0
0.284505 0.022803 0
0.346142 0.0330307 0
0.363424 0.0357332 0
0.355798 0.0468736 0
0.213902 0.00416547 0
0.300158 0.0244072 0
0.2022 -0.00813933 0
0.358167 0.0413435 0
0.21973 0.00570766 0
0.188729 -0.0176026 0
0.355469 0.0430525 0
0.317821 0.0253946 0
0.229137 0.00762452 0
0.352794 0.0460282 0
0.204663 -0.00541806 0
0.361852 0.0339777 0
0.362882 0.0323298 0
0.357821 0.0380791 0
0.352743 0.0453115 0
0.352693 0.0446064 0
0.359617 0.0345974 0
0.352621 0.0436152 0
0.247146 0.0107524 0
0.331635 0.025592 0
0.358555 0.0292988 0
0.352549 0.042643 0
0.35502 0.0380875 0
0.199717 -0.0129996 0
0 0 0
0.352447 0.04129 0
0.357371 0.0339261 0
0.352344 0.0399697 0
0.361224 0.0290477 0
0.214733 0.000285471 0
0.120913 -0.0198286 0
0.343906 0.0246092 0
0.275724 0.0146214 0
0.216131 0.00060678 0
0.3522 0.0381605 0
0.217565 0.000903152 0
0.21985 0.00134271 0
0.352057 0.0364084 0
0.356948 0.0300434 0
0.222698 0.00189419 0
0.20611 -0.00805404 0
0.354431 0.0318823 0
0.351577 0.0231718 0
0.227897 0.00286835 0
0.351861 0.0340583 0
0.30994 0.0172628 0
0.234076 0.00393711 0
0.348559 0.037415 0
0.210203 -0.00588833 0
0.358619 0.024878 0
0.359794 0.0232161 0
0.351669 0.0318063 0
0.348476 0.0360753 0
0.244398 0.00554335 0
0.356453 0.0252866 0
0.204418 -0.0128544 0
0.348359 0.0342558 0
0.35618 0.020605 0
0.201013 -0.0156482 0
0.255472 0.00692872 0
0.351417 0.0288653 0
0.190486 -0.0209334 0
0.348197 0.0318047 0
0.215425 -0.00436336 0
0.353714 0.0244788 0
0.271585 0.00851033 0
0.351179 0.0260839 0
0.216774 -0.00424394 0
0.33824 0.016396 0
0.356046 0.0209185 0
0.160211 -0.0247083 0
0.207717 -0.0111983 0
0.357569 0.0179432 0
0.347975 0.0285667 0
0.219319 -0.00402375 0
0.286926 0.00941707 0
0.350878 0.0225587 0
0.225137 -0.0033984 0
0.344401 0.0294429 0
0.196429 -0.0203215 0
0.344367 0.028813 0
0.305361 0.00972168 0
0.347681 0.0244096 0
0.344334 0.0281952 0
0.344289 0.0273469 0
0.20216 -0.0183895 0
0.35553 0.0156998 0
0.344245 0.0265177 0
0.356788 0.0143671 0
0.350606 0.0192693 0
0.238021 -0.00205491 0
0.344185 0.0253837 0
0.320504 0.00932004 0
0.352927 0.0160466 0
0.344126 0.0242809 0
0.352225 0.0118635 0
0.216024 -0.00880572 0
0.216385 -0.00884042 0
0.344046 0.0227895 0
0.347314 0.0192531 0
0.209158 -0.0143181 0
0.216745 -0.00887858 0
0.217352 -0.00891529 0
0.34397 0.021349 0
0.350276 0.0152079 0
0.262084 -8.0916e-05 0
0.218016 -0.00894434 0
0.334638 0.00774965 0
0.354919 0.0109116 0
0.219299 -0.00891046 0
0.206509 -0.0179757 0
0.343868 0.019433 0
0.191874 -0.0242824 0
0.220881 -0.00882396 0
0.343773 0.0175969 0
0.223945 -0.00856055 0
0.212472 -0.0140757 0
0.0668845 -0.0128031 0
0.349977 0.0114085 0
0.203153 -0.0211184 0
0.343789 0.00586424 0
0.339795 0.0205157 0
0.346881 0.0130683 0
0.227962 -0.00816297 0
0.343649 0.0152028 0
0.295893 0.00118904 0
0.339748 0.0193556 0
0.121793 -0.0215973 0
0.235169 -0.00748286 0
0.339683 0.0178305 0
0.352079 0.00654064 0
0.343536 0.0129223 0
0.353463 0.00513421 0
0.339594 0.0158218 0
0.210634 -0.0180343 0
0.243855 -0.00681264 0
0.216555 -0.0139789 0
0.349637 0.00674793 0
0.349346 0.00281648 0
0.217078 -0.0141237 0
0.34339 0.0100045 0
0.339479 0.0131987 0
0.217899 -0.0143383 0
0.257481 -0.00608242 0
0.346374 0.00574757 0
0.327686 -0.000689207 0
0.219377 -0.014617 0
0.204027 -0.0239423 0
0.343247 0.0072122 0
0.271683 -0.00589068 0
0.349247 0.00228613 0
0.339331 0.00982705 0
0.351038 -0.000281596 0
0.192984 -0.0276459 0
0.335042 0.012351 0
0.222664 -0.0148831 0
0.335032 0.0118112 0
0.335022 0.0112811 0
0.335012 0.0105759 0
0.343067 0.00367366 0
0.198622 -0.0269366 0
0.208335 -0.0236416 0
0.290059 -0.00639301 0
0.335001 0.00988442 0
0.211867 -0.0217239 0
0.339144 0.00556495 0
0.334988 0.00895743 0
0.230797 -0.0149822 0
0.334975 0.00805045 0
0.217053 -0.0189546 0
0.217247 -0.0190453 0
0.217453 -0.0191333 0
0.348619 -0.00318696 0
0.350051 -0.00437362 0
0.334956 0.00683656 0
0.342862 0.000239848 0
0.306246 -0.00764294 0
0.217747 -0.0192689 0
0.218046 -0.0194044 0
0.334937 0.00565115 0
0.204738 -0.0267538 0
0.344538 -0.00653999 0
0.345678 -0.00304335 0
0.218508 -0.0195935 0
0.334909 0.00407691 0
0.218965 -0.0197892 0
0.338906 0.000214824 0
0.248808 -0.0149777 0
0.219718 -0.0200412 0
0.33488 0.00253894 0
0.322419 -0.0101766 0
0.214811 -0.0233147 0
0.342568 -0.00408948 0
0.220547 -0.0202888 0
0 0 0
0.347853 -0.0084161 0
0.33484 0.000513721 0
0.222193 -0.0205402 0
0.193753 -0.0310087 0
0.32983 0.00340143 0
0.161658 -0.0302865 0
0.334793 -0.00147222 0
0.212965 -0.0260732 0
0.224343 -0.0207358 0
0.329817 0.0023548 0
0.333507 -0.0129104 0
0.122192 -0.0235053 0
0.34223 -0.0082977 0
0.329798 0.0010155 0
0.205328 -0.0296893 0
0.279261 -0.0157193 0
0.338554 -0.00649237 0
0.22861 -0.0208788 0
0.334713 -0.0040641 0
0.217871 -0.0245388 0
0.32977 -0.000723614 0
0.218114 -0.0247555 0
0.218541 -0.0250586 0
0.234377 -0.0209594 0
0.345988 -0.0147593 0
0.33462 -0.00661271 0
0.344533 -0.0135157 0
0.329733 -0.0029959 0
0.209704 -0.0299811 0
0.219212 -0.0254945 0
0.340609 -0.0168743 0
0.341732 -0.0134911 0
0.244263 -0.021188 0
0.329679 -0.00596786 0
0.334474 -0.00990045 0
0.220235 -0.0261309 0
0.313433 -0.0192679 0
0.205744 -0.0326155 0
0.199852 -0.0335488 0
0.213732 -0.0303825 0
0.337963 -0.0147726 0
0.255925 -0.0217886 0
0.194256 -0.0343786 0
0.324495 -0.00509885 0
0.222033 -0.0270374 0
0.334304 -0.0131229 0
0.324498 -0.00562388 0
0.329588 -0.0098382 0
0.342938 -0.0206963 0
0.3245 -0.00614314 0
0.341162 -0.0185141 0
0.324504 -0.00680629 0
0.324506 -0.00746248 0
0.324509 -0.00831825 0
0.218438 -0.0299871 0
0.272402 -0.0232559 0
0.218576 -0.0300958 0
0.218713 -0.0302053 0
0.324509 -0.00916552 0
0.218902 -0.0303692 0
0.226326 -0.0282742 0
0.33405 -0.0172002 0
0.21909 -0.0305343 0
0.324506 -0.0102824 0
0.219354 -0.0307767 0
0.329427 -0.0148276 0
0.324501 -0.0113884 0
0.219618 -0.0310215 0
0.219985 -0.0313739 0
0.206014 -0.0356996 0
0.288401 -0.0255836 0
0.324487 -0.0128492 0
0.34183 -0.0255569 0
0.340276 -0.0245797 0
0.220352 -0.0317304 0
0.333754 -0.0211746 0
0.324468 -0.0142951 0
0.334213 -0.0270103 0
0.216421 -0.0338095 0
0.22087 -0.0322312 0
0.33695 -0.0247121 0
0.237488 -0.0300624 0
0.324436 -0.0161974 0
0.214262 -0.0353649 0
0.221378 -0.0327416 0
0.194454 -0.0377407 0
0.329138 -0.0211381 0
0.122156 -0.0253507 0
0.324395 -0.0180766 0
0.305913 -0.0294109 0
0.210383 -0.0370947 0
0.222209 -0.0334131 0
0.333319 -0.0260876 0
0.318282 -0.0148547 0
0.339214 -0.0303801 0
0.324331 -0.0205248 0
0.318286 -0.0159543 0
0.223168 -0.0340783 0
0.206101 -0.0387733 0
0.318289 -0.0173158 0
0.218927 -0.0361661 0
0.219136 -0.0363875 0
0.324253 -0.0229343 0
0.319032 -0.0334282 0
0.260972 -0.0331536 0
0.318287 -0.0190424 0
0.21945 -0.0367169 0
0.22525 -0.0348572 0
0.332817 -0.0308566 0
0.219905 -0.0372005 0
0.200163 -0.0401681 0
0.328627 -0.0289293 0
0.318275 -0.0212637 0
0.324131 -0.026026 0
0.228104 -0.0356234 0
0.220548 -0.0379021 0
0.161588 -0.0360156 0
0.336612 -0.0372166 0
0.214373 -0.0402974 0
0.318244 -0.0241353 0
0.335312 -0.0363294 0
0.194401 -0.0411092 0
0.323986 -0.0290576 0
0.328499 -0.0387129 0
0.22142 -0.0389132 0
0.233794 -0.0366678 0
0.206008 -0.0420342 0
0.332098 -0.0366087 0
0.318176 -0.0278339 0
0 0 0
0.323765 -0.0328771 0
0.29433 -0.0389513 0
0.311995 -0.0244463 0
0.222644 -0.0403478 0
0.241516 -0.0379609 0
0.311999 -0.0250331 0
0.312002 -0.0256157 0
0.0666308 -0.0144802 0
0.218826 -0.0423093 0
0.312005 -0.026327 0
0.327756 -0.038305 0
0.218936 -0.0424276 0
0.219046 -0.0425463 0
0.312007 -0.0270331 0
0.332244 -0.0434677 0
0.2192 -0.0427222 0
0.31804 -0.0325474 0
0.323506 -0.0366075 0
0.312007 -0.0279175 0
0.219353 -0.0428991 0
0.331287 -0.0421533 0
0.219567 -0.0431576 0
0.312007 -0.028795 0
0.219778 -0.043418 0
0.253821 -0.0402736 0
0.312003 -0.0299137 0
0.224802 -0.0423906 0
0.220072 -0.0437935 0
0.210129 -0.0450408 0
0.121616 -0.0273729 0
0.311996 -0.0310225 0
0.205727 -0.04528 0
0.220361 -0.0441731 0
0.194074 -0.0444685 0
0.311984 -0.0324496 0
0.220754 -0.0447127 0
0.323125 -0.041214 0
0.214067 -0.0459114 0
0.216353 -0.0456955 0
0.311967 -0.0338618 0
0.221137 -0.0452594 0
0.317785 -0.0384626 0
0.267646 -0.0435646 0
0.311938 -0.0356826 0
0.331512 -0.0492304 0
0.221647 -0.0460213 0
0.33007 -0.0486849 0
0.199584 -0.0468089 0
0.229985 -0.0455378 0
0.319708 -0.0490086 0
0.311901 -0.0374809 0
0.222135 -0.0467959 0
0.322685 -0.0456912 0
0.326303 -0.0492555 0
0.311842 -0.0397875 0
0.222784 -0.0478402 0
0.284434 -0.0487613 0
0.205226 -0.0487372 0
0.304555 -0.0355507 0
0.317332 -0.0457418 0
0.21818 -0.0491845 0
0.31177 -0.0420608 0
0.304561 -0.0368121 0
0.218346 -0.0494189 0
0.22341 -0.0489003 0
0.218594 -0.0497676 0
0.193508 -0.0478276 0
0.304563 -0.0383027 0
0.322053 -0.0510917 0
0.328637 -0.0548992 0
0.21895 -0.0502787 0
0.311659 -0.0449469 0
0.304559 -0.0401127 0
0.224279 -0.0503228 0
0.243895 -0.0507835 0
0.219447 -0.0510174 0
0.213275 -0.0514496 0
0.298784 -0.0545249 0
0.304545 -0.0423551 0
0.311526 -0.047783 0
0.220122 -0.0520701 0
0.225185 -0.0517957 0
0.321329 -0.0563243 0
0.304509 -0.0451667 0
0.20453 -0.052172 0
0.316556 -0.0544921 0
0.311327 -0.0513322 0
0.22102 -0.0535512 0
0.120636 -0.0292455 0
0.160016 -0.041849 0
0.324572 -0.0618371 0
0.227456 -0.05367 0
0.208647 -0.0538396 0
0.304437 -0.0487058 0
0.324022 -0.0617121 0
0.310985 -0.0617734 0
0.192694 -0.0511684 0
0.311093 -0.0548077 0
0.222181 -0.0556191 0
0.320314 -0.0624873 0
0.216944 -0.0559146 0
0.296928 -0.0465124 0
0.217027 -0.0560358 0
0.21711 -0.0561574 0
0.230878 -0.0556585 0
0.198154 -0.0534616 0
0.296931 -0.0471934 0
0.270802 -0.0592699 0
0.217228 -0.0563368 0
0.304302 -0.0531454 0
0.217345 -0.056517 0
0.296934 -0.0478707 0
0.217512 -0.056779 0
0.296936 -0.0486585 0
0.217678 -0.0570425 0
0.310751 -0.0590809 0
0.296937 -0.0494417 0
0.217909 -0.0574203 0
0.296936 -0.0503781 0
0.218138 -0.057801 0
0.203556 -0.0558351 0
0.296933 -0.0513085 0
0.211891 -0.0576057 0
0.317163 -0.0680264 0
0.218453 -0.0583398 0
0.315287 -0.0647569 0
0.296927 -0.0524464 0
0.223553 -0.0585178 0
0.218763 -0.0588844 0
0.23786 -0.0585191 0
0.304057 -0.0586599 0
0.296917 -0.0535762 0
0.310355 -0.0632495 0
0.31917 -0.0684316 0
0.213948 -0.0587949 0
0 0 0
0.219174 -0.0596468 0
0.296901 -0.0549803 0
0.191651 -0.0544975 0
0.219576 -0.060421 0
0.296881 -0.0563728 0
0.296848 -0.0581184 0
0.220094 -0.0614933 0
0.247213 -0.0622467 0
0.309794 -0.0682768 0
0.296807 -0.059847 0
0.303632 -0.065407 0
0.22058 -0.0625931 0
0.225627 -0.0626285 0
0.318095 -0.075108 0
0.202385 -0.0594656 0
0.296745 -0.0620176 0
0.317537 -0.0753029 0
0.299274 -0.0718886 0
0.119123 -0.0313169 0
0.221171 -0.0640985 0
0.214941 -0.0632959 0
0.29667 -0.0641626 0
0.215081 -0.0635391 0
0.309154 -0.0731592 0
0.215287 -0.0639004 0
0.287973 -0.0589776 0
0.260415 -0.0680809 0
0.313291 -0.0764794 0
0.215579 -0.064429 0
0.221666 -0.0656472 0
0.296558 -0.0668438 0
0.287978 -0.0604608 0
0.209989 -0.0636413 0
0.19039 -0.0577936 0
0.215984 -0.065192 0
0.287977 -0.0621366 0
0.195908 -0.0601037 0
0.302924 -0.0735071 0
0.205644 -0.0634301 0
0.296426 -0.0694869 0
0.216523 -0.0662791 0
0.222252 -0.0676766 0
0.287968 -0.0640814 0
0.315586 -0.0816891 0
0.231373 -0.0691085 0
0.308276 -0.078915 0
0.287944 -0.0663918 0
0.217209 -0.0678095 0
0.200878 -0.0633264 0
0.273915 -0.0752251 0
0.296233 -0.0727586 0
0.222741 -0.0697377 0
0.156974 -0.0476829 0
0.287898 -0.0691855 0
0.29601 -0.0759744 0
0.218024 -0.0699388 0
0.0643364 -0.0161243 0
0.30729 -0.0844823 0
0.287813 -0.0726003 0
0.188912 -0.0610627 0
0.22336 -0.0724197 0
0.30178 -0.0830109 0
0.29569 -0.0799002 0
0.30882 -0.0878728 0
0.212314 -0.0704537 0
0.212379 -0.0705776 0
0.212443 -0.0707018 0
0.212537 -0.0708852 0
0.287071 -0.0845411 0
0.212631 -0.0710691 0
0.218939 -0.0728556 0
0.310232 -0.0893623 0
0.212765 -0.0713366 0
0.287664 -0.076789 0
0.212897 -0.0716053 0
0.213082 -0.0719899 0
0.207352 -0.0701786 0
0.199178 -0.0671334 0
0.278722 -0.0713635 0
0.224075 -0.075179 0
0.213263 -0.072377 0
0.117197 -0.0331285 0
0.295323 -0.0837448 0
0.278725 -0.0721718 0
0.247331 -0.0797488 0
0.213512 -0.0729225 0
0.278726 -0.0729773 0
0.305914 -0.0908591 0
0.213752 -0.0734726 0
0.278726 -0.073873 0
0.278724 -0.0747654 0
0.214072 -0.0742358 0
0.287412 -0.0819098 0
0.278719 -0.0757832 0
0.208804 -0.072747 0
0.214377 -0.0750072 0
0.278712 -0.0767967 0
0.219935 -0.0767825 0
0.29481 -0.0883579 0
0.192868 -0.0667004 0
0.2787 -0.0779808 0
0.187245 -0.0642799 0
0.295705 -0.0930542 0
0.226457 -0.0787962 0
0.21477 -0.0760612 0
0.278684 -0.079159 0
0.299996 -0.0938778 0
0.21514 -0.0771271 0
0.27866 -0.0805634 0
0.304377 -0.0970561 0
0 0 0
0.278632 -0.0819595 0
0.286994 -0.0881119 0
0.294228 -0.0928571 0
0.215583 -0.0785662 0
0.278589 -0.0836482 0
0.197088 -0.0711533 0
0.230419 -0.0828897 0
0.278539 -0.085325 0
0.215999 -0.0800255 0
0.20089 -0.0736327 0
0.220856 -0.082042 0
0.278466 -0.0873697 0
0.208794 -0.0780676 0
0.208915 -0.0783151 0
0.209089 -0.0786819 0
0.204203 -0.0765137 0
0.293433 -0.0981521 0
0.216476 -0.0819708 0
0.299772 -0.102336 0
0.209335 -0.0792173 0
0.278382 -0.0893969 0
0.272656 -0.0951455 0