# vtk DataFile Version 3.0
File generated from DClib
ASCII

DATASET UNSTRUCTURED_GRID
POINTS 1909 float
50 0 0 
48.75 0 0 
50 1.66667 0 
47.5 0 0 
50 3.33333 0 
46.25 0 0 
50 5 0 
45 0 0 
43.75 0 0 
50 6.66667 0 
43 2 0 
42.5 0 0 
50 8.33333 0 
43 4.66667 0 
41.25 0 0 
41.075 2 0 
50 10 0 
40 0 0 
43 7.33333 0 
39.15 2 0 
38.75 0 0 
43 10 0 
37.5 0 0 
37.225 2 0 
36.25 0 0 
36 4 0 
35.3 2 0 
36 5 0 
35 0 0 
35.325 4 0 
36 6 0 
36 7 0 
34.65 4 0 
36 8 0 
33.75 0 0 
33.975 4 0 
36 9 0 
33.375 2 0 
33.3 4 0 
36 10 0 
32.5 0 0 
32.625 4 0 
33 6 0 
31.95 4 0 
33 7.45455 0 
31.45 2 0 
31.25 0 0 
31.95 6 0 
33 8.79545 0 
31.275 4 0 
33 10 0 
30.6 4 0 
30 0 0 
30.9 6 0 
29.925 4 0 
29.525 2 0 
29.85 6 0 
29.25 4 0 
28.75 0 0 
30 8 0 
30 8.45455 0 
28.575 4 0 
29.625 8 0 
30 8.90909 0 
28.8 6 0 
30 9.25 0 
29.782 8.90909 0 
30 9.59091 0 
29.9487 9.59091 0 
29.25 8 0 
29.7462 9.25 0 
30 9.79545 0 
29.897 9.59091 0 
29.564 8.90909 0 
29.9547 9.79545 0 
29.3462 8.45455 0 
29.84 9.59091 0 
30 10 0 
29.8975 9.79545 0 
29.9882 10 0 
29.9902 10.0098 0 
29.7827 9.59091 0 
29.9765 10 0 
29.9804 10.0196 0 
29.9667 10.0098 0 
29.9591 10 0 
29.9686 10.0196 0 
29.9659 10.0341 0 
29.9569 10.0196 0 
29.9418 10 0 
29.9395 10.0196 0 
29.9515 10.0485 0 
29.932 10.0098 0 
29.9424 10.0341 0 
29.8241 9.79545 0 
29.7181 9.59091 0 
29.9166 10 0 
29.9397 10.0485 0 
29.9222 10.0196 0 
29.9279 10.0485 0 
29.9305 10.0695 0 
29.8914 10 0 
29.9077 10.0341 0 
27.9 4 0 
29.897 10.0196 0 
29.9106 10.0485 0 
29.8817 10.0098 0 
29.907 10.0695 0 
29.8933 10.0485 0 
29.9095 10.0905 0 
29.8719 10.0196 0 
27.6 2 0 
29.8556 10 0 
29.8978 10.0905 0 
29.6531 9.59091 0 
29.3437 8.90909 0 
27.5 0 0 
29.8681 10.0485 0 
29.886 10.0905 0 
29.8574 10.0341 0 
29.4839 9.25 0 
29.8723 10.0695 0 
29.7289 9.79545 0 
29.836 10.0196 0 
29.8687 10.0905 0 
29.8197 10 0 
29.8797 10.1203 0 
29.843 10.0485 0 
29.8513 10.0905 0 
29.81 10.0098 0 
29.8561 10.1203 0 
29.8002 10.0196 0 
29.8221 10.0695 0 
29.8072 10.0485 0 
29.8262 10.0905 0 
29.5782 9.59091 0 
29.8498 10.1502 0 
29.7695 10 0 
29.7858 10.0341 0 
29.838 10.1502 0 
29.8215 10.1203 0 
29.8011 10.0905 0 
29.8262 10.1502 0 
29.7714 10.0485 0 
28.875 8 0 
29.75 10.0196 0 
29.8089 10.1502 0 
29.7654 10.0905 0 
29.7193 10 0 
29.7916 10.1502 0 
29.7505 10.0695 0 
29.8079 10.1921 0 
29.7713 10.1203 0 
29.7096 10.0098 0 
29.6047 9.79545 0 
29.503 9.59091 0 
29.7213 10.0485 0 
29.7665 10.1502 0 
29.6999 10.0196 0 
29.7844 10.1921 0 
29.7296 10.0905 0 
29.6856 10.0341 0 
29.7414 10.1502 0 
29.7497 10.1921 0 
29.6503 10 0 
29.7661 10.2339 0 
29.6712 10.0485 0 
29.6999 10.1203 0 
29.7543 10.2339 0 
29.6796 10.0905 0 
29.7057 10.1502 0 
29.7425 10.2339 0 
29.1235 8.90909 0 
29.6309 10.0196 0 
29.6504 10.0695 0 
29.4146 9.59091 0 
29.7252 10.2339 0 
29.6996 10.1921 0 
29.6701 10.1502 0 
29.7079 10.2339 0 
29.6296 10.0905 0 
29.5813 10 0 
29.6023 10.0485 0 
29.5716 10.0098 0 
29.6828 10.2339 0 
29.7086 10.2914 0 
29.2101 9.25 0 
29.562 10.0196 0 
29.6201 10.1502 0 
29.6578 10.2339 0 
29.4428 9.79545 0 
29.5999 10.1203 0 
29.6849 10.2914 0 
29.6283 10.1921 0 
29.5477 10.0341 0 
29.3259 9.59091 0 
29.5608 10.0905 0 
29.5335 10.0485 0 
29.6221 10.2339 0 
29.6503 10.2914 0 
29.5702 10.1502 0 
29.4881 10 0 
29.5128 10.0695 0 
29.6511 10.3489 0 
29.5866 10.2339 0 
29.6392 10.3489 0 
29.4689 10.0196 0 
29.6002 10.2914 0 
29.6273 10.3489 0 
29.4921 10.0905 0 
29.61 10.3489 0 
29.5286 10.1921 0 
29.5016 10.1502 0 
29.5368 10.2339 0 
29.5926 10.3489 0 
29.4405 10.0485 0 
29.2199 9.59091 0 
29.4626 10.1203 0 
29.3949 10 0 
28.9 8.90909 0 
29.5676 10.3489 0 
29.5291 10.2914 0 
29.3853 10.0098 0 
28.6923 8.45455 0 
29.487 10.2339 0 
29.5426 10.3489 0 
29.3758 10.0196 0 
29.5734 10.4266 0 
29.4331 10.1502 0 
29.3993 10.0905 0 
28.5 8 0 
29.3617 10.0341 0 
29.5496 10.4266 0 
29.5071 10.3489 0 
29.2327 9.79545 0 
29.3475 10.0485 0 
29.1136 9.59091 0 
29.4187 10.2339 0 
29.5148 10.4266 0 
29.4716 10.3489 0 
29.3918 10.1921 0 
29.3271 10.0695 0 
29.4298 10.2914 0 
29.2714 10 0 
29.3406 10.1502 0 
28.9208 9.25 0 
29.3066 10.0905 0 
29.4648 10.4266 0 
29.422 10.3489 0 
29.4958 10.5042 0 
29.2524 10.0196 0 
27.75 6 0 
29.3504 10.2339 0 
29.4837 10.5042 0 
29.4718 10.5042 0 
29.2774 10.1203 0 
29.4543 10.5042 0 
29.3724 10.3489 0 
29.2244 10.0485 0 
29.4369 10.5042 0 
29.3938 10.4266 0 
28.9853 9.59091 0 
29.2481 10.1502 0 
28.6766 8.90909 0 
29.4119 10.5042 0 
29.2934 10.2914 0 
27.225 4 0 
29.148 10 0 
29.2582 10.2339 0 
29.1837 10.0905 0 
29.3869 10.5042 0 
29.1385 10.0098 0 
29.3044 10.3489 0 
29.1291 10.0196 0 
29.2072 10.1921 0 
29.3514 10.5042 0 
29.1152 10.0341 0 
29.3929 10.6071 0 
29.2949 10.4266 0 
29.1013 10.0485 0 
29.3686 10.6071 0 
29.316 10.5042 0 
29.2364 10.3489 0 
28.9623 9.79545 0 
29.1257 10.1502 0 
29.1662 10.2339 0 
29.0811 10.0695 0 
28.8566 9.59091 0 
29.3336 10.6071 0 
29.2666 10.5042 0 
29.0609 10.0905 0 
28.9875 10 0 
29.2835 10.6071 0 
29.1448 10.3489 0 
29.0321 10.1203 0 
29.2173 10.5042 0 
29.1098 10.2914 0 
28.125 8 0 
28.9688 10.0196 0 
29.1594 10.4266 0 
28.611 9.25 0 
29.29 10.71 0 
28.4486 8.90909 0 
29.0443 10.2339 0 
29.0033 10.1502 0 
29.2777 10.71 0 
28.9413 10.0485 0 
29.2128 10.6071 0 
29.2655 10.71 0 
29.1497 10.5042 0 
29.2478 10.71 0 
28.7003 9.59091 0 
29.0533 10.3489 0 
29.2303 10.71 0 
28.9629 10.1921 0 
28.9013 10.0905 0 
29.2051 10.71 0 
29.0822 10.5042 0 
29.1801 10.71 0 
28.827 10 0 
29.1144 10.6071 0 
28.8177 10.0098 0 
28.9225 10.2339 0 
28.8085 10.0196 0 
29.1447 10.71 0 
28.7949 10.0341 0 
28.8443 10.1502 0 
28.977 10.4266 0 
28.9322 10.3489 0 
29.1094 10.71 0 
28.7813 10.0485 0 
28.9912 10.5042 0 
29.1562 10.8438 0 
28.5436 9.59091 0 
28.7615 10.0695 0 
28.8669 10.2914 0 
29.1313 10.8438 0 
28.6184 9.79545 0 
29.0602 10.71 0 
28.2207 8.90909 0 
28.7418 10.0905 0 
28.0378 8.45455 0 
28.9798 10.6071 0 
29.0958 10.8438 0 
29.0112 10.71 0 
28.9005 10.5042 0 
28.7136 10.1203 0 
28.7644 10.2339 0 
28.8113 10.3489 0 
29.0454 10.8438 0 
28.6223 10 0 
28.6854 10.1502 0 
28.2746 9.25 0 
28.9441 10.71 0 
28.6042 10.0196 0 
27.75 8 0 
28.9747 10.8438 0 
28.6459 10.1921 0 
28.5773 10.0485 0 
29.0225 10.9775 0 
28.3532 9.59091 0 
28.7804 10.5042 0 
28.736 10.4266 0 
28.8772 10.71 0 
29.0097 10.9775 0 
28.9971 10.9775 0 
28.799 10.6071 0 
28.9791 10.9775 0 
28.5384 10.0905 0 
28.6064 10.2339 0 
28.6543 10.3489 0 
28.9611 10.9775 0 
28.8769 10.8438 0 
27.9867 8.90909 0 
26.25 0 0 
28.9358 10.9775 0 
28.7871 10.71 0 
28.9106 10.9775 0 
28.6607 10.5042 0 
28.4177 10 0 
26.55 4 0 
28.552 10.2914 0 
28.483 10.1502 0 
28.4087 10.0098 0 
28.8751 10.9775 0 
28.3998 10.0196 0 
28.3866 10.0341 0 
28.8399 10.9775 0 
28.6974 10.71 0 
28.3735 10.0485 0 
28.1625 9.59091 0 
28.7436 10.8438 0 
28.4976 10.3489 0 
28.3543 10.0695 0 
28.791 10.9775 0 
28.4052 10.2339 0 
28.3352 10.0905 0 
28.8519 11.1481 0 
28.1869 9.79545 0 
28.5607 10.6071 0 
28.5053 10.5042 0 
28.7423 10.9775 0 
28.8258 11.1481 0 
28.308 10.1203 0 
28.5787 10.71 0 
27.904 9.25 0 
28.7893 11.1481 0 
28.424 10.4266 0 
27.7528 8.90909 0 
28.2807 10.1502 0 
28.6758 10.9775 0 
27.375 8 0 
28.7383 11.1481 0 
28.1619 10 0 
28.5649 10.8438 0 
28.2425 10.1921 0 
28.6096 10.9775 0 
28.1444 10.0196 0 
28.298 10.3489 0 
28.4605 10.71 0 
26.7 6 0 
27.9315 9.59091 0 
28.3503 10.5042 0 
28.6676 11.1481 0 
28.1187 10.0485 0 
28.2042 10.2339 0 
28.5207 10.9775 0 
28.0813 10.0905 0 
28.6814 11.3186 0 
27.3818 8.45455 0 
28.6679 11.3186 0 
28.1516 10.2914 0 
28.5703 11.1481 0 
28.6544 11.3186 0 
28.6358 11.3186 0 
27.5109 8.90909 0 
28.3072 10.71 0 
28.6173 11.3186 0 
28.2524 10.6071 0 
28.4322 10.9775 0 
28.028 10.1502 0 
28.5915 11.3186 0 
28.0989 10.3489 0 
28.33 10.8438 0 
28.5658 11.3186 0 
28.153 10.5042 0 
27.9061 10 0 
27.8975 10.0098 0 
28.5303 11.3186 0 
28.4384 11.1481 0 
27.7002 9.59091 0 
27.889 10.0196 0 
27.8765 10.0341 0 
28.4949 11.3186 0 
28.3154 10.9775 0 
27.9532 10.2339 0 
27.8639 10.0485 0 
28.0276 10.4266 0 
28.1544 10.71 0 
27.8457 10.0695 0 
27.4909 9.25 0 
28.4463 11.3186 0 
27 8 0 
27.8275 10.0905 0 
28.3979 11.3186 0 
27.8015 10.1203 0 
27.6542 9.79545 0 
25.675 2 0 
28.1991 10.9775 0 
27.2691 8.90909 0 
27.9563 10.5042 0 
28.4682 11.5318 0 
28.2625 11.1481 0 
27.7755 10.1502 0 
28.3322 11.3186 0 
27.8502 10.3489 0 
28.4401 11.5318 0 
25.875 4 0 
27.7391 10.1921 0 
28.4019 11.5318 0 
28.0268 10.8438 0 
28.2668 11.3186 0 
27.9602 10.71 0 
28.3498 11.5318 0 
27.4223 9.59091 0 
27.7026 10.2339 0 
27.5927 10 0 
28.0486 10.9775 0 
27.8616 10.6071 0 
27.5762 10.0196 0 
28.1794 11.3186 0 
28.2786 11.5318 0 
27.5519 10.0485 0 
27.6524 10.2914 0 
28.0319 11.1481 0 
27.7108 10.5042 0 
27.5167 10.0905 0 
27.0169 8.90909 0 
28.0924 11.3186 0 
27.6021 10.3489 0 
27.8988 10.9775 0 
28.1818 11.5318 0 
27.7667 10.71 0 
26.625 8 0 
28.255 11.745 0 
27.4664 10.1502 0 
28.2402 11.745 0 
28.2256 11.745 0 
28.2059 11.745 0 
27.978 11.3186 0 
26.7234 8.45455 0 
27.0259 9.25 0 
27.5342 10.4266 0 
28.1863 11.745 0 
27.1442 9.59091 0 
28.0516 11.5318 0 
28.1598 11.745 0 
27.3959 10.2339 0 
28.1334 11.745 0 
27.2793 10 0 
27.2714 10.0098 0 
27.2635 10.0196 0 
27.7086 10.9775 0 
27.6431 10.8438 0 
28.0975 11.745 0 
27.8643 11.3186 0 
27.4661 10.5042 0 
27.2518 10.0341 0 
27.2401 10.0485 0 
28.0617 11.745 0 
26.7648 8.90909 0 
27.5255 10.71 0 
27.7353 11.1481 0 
27.2231 10.0695 0 
28.0133 11.745 0 
27.2061 10.0905 0 
27.8791 11.5318 0 
27.2986 10.3489 0 
27.1818 10.1203 0 
27.9651 11.745 0 
27.3758 10.6071 0 
27.0077 9.79545 0 
27.7174 11.3186 0 
27.1576 10.1502 0 
25 0 0 
27.5193 10.9775 0 
27.9003 11.745 0 
27.1236 10.1921 0 
26.25 8 0 
27.9939 12.0061 0 
25.65 6 0 
27.8359 11.745 0 
26.8136 9.59091 0 
27.0896 10.2339 0 
27.9626 12.0061 0 
27.2853 10.71 0 
25.2 4 0 
27.5713 11.3186 0 
27.9218 12.0061 0 
26.4998 8.90909 0 
27.167 10.5042 0 
27.6541 11.5318 0 
27.0427 10.2914 0 
27.7503 11.745 0 
26.9033 10 0 
27.8677 12.0061 0 
26.8882 10.0196 0 
26.8659 10.0485 0 
26.9958 10.3489 0 
27.2836 10.9775 0 
27.6652 11.745 0 
27.3609 11.1481 0 
27.7955 12.0061 0 
26.499 9.25 0 
[...]
POINT_DATA 1909
SCALARS phi float 1
LOOKUP_TABLE default
VECTORS Displacement float
0 0 0
0 0 0
0 -0.00209858 0
0 0 0
0 -0.001088 0
0 0 0
0 0.00268328 0
0 0 0
0 0 0
0 0.00889322 0
0.017951 -0.000735066 0
0 0 0
0 0.0173007 0
0.0339996 0.00640887 0
0 0 0
0.0243215 -0.000703469 0
0 0.0270144 0
0 0 0
0.044653 0.0203613 0
0.0311025 -0.000821039 0
0 0 0
0.0502916 0.0389961 0
0 0 0
0.03812 -0.00116117 0
0 0 0
0.0713531 0.00488576 0
0.0449862 -0.00168749 0
0.0842977 0.0105495 0
0 0 0
0.0765172 0.00451988 0
0.0932436 0.0176761 0
0.0989309 0.0257222 0
0.0814576 0.00412238 0
0.102578 0.0339309 0
0 0 0
0.0863787 0.00350504 0
0.105504 0.0425922 0
0.0513512 -0.00237521 0
0.0910567 0.00284411 0
0.108258 0.0526981 0
0 0 0
0.0954914 0.00206444 0
0.12292 0.0152409 0
0.099636 0.00124132 0
0.135117 0.0297278 0
0.0569026 -0.00319766 0
0 0 0
0.133176 0.0114291 0
0.140753 0.0490122 0
0.103493 0.000294708 0
0.142285 0.0755687 0
0.107012 -0.000700003 0
0 0 0
0.141408 0.00788699 0
0.110216 -0.00178227 0
0.0613751 -0.0041349 0
0.148295 0.00416708 0
0.113056 -0.00292548 0
0 0 0
0.175291 0.0173894 0
0.180939 0.0217059 0
0.115561 -0.00411672 0
0.178713 0.0146979 0
0.186768 0.0271677 0
0.153933 0.000177298 0
0.191169 0.0349044 0
0.189393 0.0243313 0
0.195766 0.0459154 0
0.196564 0.0433261 0
0.181721 0.0119969 0
0.194613 0.0295733 0
0.196798 0.0534132 0
0.197331 0.0412172 0
0.191724 0.0218424 0
0.19757 0.0507415 0
0.187346 0.0159568 0
0.198075 0.0391355 0
0.197194 0.0617258 0
0.198611 0.0477346 0
0.197556 0.0619443 0
0.261801 0.0851289 0
0.198759 0.0373212 0
0.197976 0.0619315 0
0.308256 0.101055 0
0.260461 0.0843411 0
0.198633 0.0618358 0
0.3068 0.10023 0
0.311146 0.10067 0
0.305143 0.0991753 0
0.19935 0.0615818 0
0.302309 0.097667 0
0.311153 0.099776 0
0.258066 0.0825052 0
0.30982 0.0988943 0
0.200034 0.0445482 0
0.199442 0.0354983 0
0.200412 0.06082 0
0.311036 0.0989832 0
0.299422 0.0959773 0
0.310937 0.0982291 0
0.311369 0.0987309 0
0.201508 0.0599994 0
0.306729 0.096316 0
0.117701 -0.00539583 0
0.295394 0.0933877 0
0.310589 0.0972267 0
0.254934 0.0789536 0
0.311184 0.0972796 0
0.310097 0.0961021 0
0.310822 0.0975341 0
0.291532 0.0907766 0
0.0645261 -0.00515671 0
0.203001 0.0583398 0
0.31076 0.0968029 0
0.200059 0.033851 0
0.193943 0.0195866 0
0 0 0
0.309029 0.0943172 0
0.310678 0.096043 0
0.301558 0.0920178 0
0.197602 0.0256005 0
0.310774 0.0949694 0
0.201892 0.0412189 0
0.286644 0.0868584 0
0.310534 0.0948438 0
0.204456 0.0567544 0
0.310154 0.0958276 0
0.307514 0.0923474 0
0.310379 0.0935842 0
0.251239 0.073286 0
0.310001 0.094182 0
0.281992 0.0831204 0
0.309514 0.0911406 0
0.305024 0.0892496 0
0.310102 0.0916842 0
0.200721 0.0321484 0
0.309334 0.0939178 0
0.206304 0.054275 0
0.294078 0.0851984 0
0.309239 0.0930471 0
0.309735 0.0915887 0
0.309786 0.0897416 0
0.309143 0.0921563 0
0.30211 0.0861141 0
0.184618 0.00932914 0
0.276209 0.0779575 0
0.30899 0.0908231 0
0.309122 0.0869916 0
0.207989 0.0519696 0
0.308832 0.0894777 0
0.306326 0.0853454 0
0.308167 0.0910761 0
0.309289 0.0877115 0
0.246813 0.0656333 0
0.204145 0.0377216 0
0.201326 0.0305576 0
0.297845 0.0816503 0
0.308598 0.0875221 0
0.270864 0.0732169 0
0.307984 0.0892409 0
0.308205 0.084255 0
0.28401 0.0759272 0
0.308362 0.0855905 0
0.307698 0.0865364 0
0.210007 0.0489689 0
0.307021 0.0881463 0
0.29336 0.0773774 0
0.308406 0.0823168 0
0.306915 0.0872119 0
0.306475 0.0805272 0
0.308027 0.0828988 0
0.306809 0.0862859 0
0.195951 0.0173961 0
0.264347 0.0672242 0
0.300156 0.0774163 0
0.202032 0.0288817 0
0.306654 0.0849367 0
0.307268 0.0827255 0
0.307707 0.0803188 0
0.3065 0.083611 0
0.304253 0.0769093 0
0.211709 0.0461855 0
0.287223 0.0717925 0
0.241504 0.0566116 0
0.306284 0.0817337 0
0.305483 0.0841141 0
0.20032 0.022063 0
0.258585 0.0618765 0
0.307163 0.0769076 0
0.306073 0.0799153 0
0.206694 0.0340594 0
0.306188 0.0753693 0
0.305292 0.0823084 0
0.306676 0.0776665 0
0.271463 0.0648354 0
0.202727 0.0273148 0
0.300599 0.0722101 0
0.281178 0.0666213 0
0.305779 0.0774285 0
0.305014 0.0797482 0
0.306516 0.0737067 0
0.213641 0.0430079 0
0.290174 0.0675392 0
0.303989 0.0802165 0
0.305495 0.0750638 0
0.303895 0.079343 0
0.251785 0.0556471 0
0.304618 0.0762512 0
0.303802 0.0784866 0
0.296454 0.0677443 0
0.303668 0.0772556 0
0.305864 0.0713547 0
0.305194 0.0696496 0
0.305121 0.0719371 0
0.303536 0.0760583 0
0.273308 0.0603318 0
0.203572 0.0256161 0
0.301022 0.066948 0
0.21515 0.0400346 0
0.197857 0.0152536 0
0.30335 0.074379 0
0.304085 0.0716838 0
0.23541 0.0470515 0
0.19256 0.0105918 0
0.304776 0.069032 0
0.30317 0.0727632 0
0.246142 0.0502356 0
0.302188 0.0752729 0
0.303397 0.0658288 0
0.290312 0.0621917 0
0.187212 0.00657874 0
0.257066 0.0528748 0
0.30202 0.0736672 0
0.302922 0.070562 0
0.209393 0.0301543 0
0.265926 0.0546366 0
0.204455 0.0240287 0
0.304286 0.0653261 0
0.30178 0.0714249 0
0.302686 0.0684726 0
0.304156 0.0638894 0
0.275991 0.0561645 0
0.303416 0.0660195 0
0.216782 0.0368365 0
0.300126 0.0611155 0
0.20285 0.0186143 0
0.283824 0.0569764 0
0.301446 0.0683885 0
0.302367 0.065718 0
0.300394 0.0706621 0
0.239884 0.0442932 0
0.15824 -0.00401836 0
0.303761 0.0619322 0
0.300321 0.0699114 0
0.300249 0.0691769 0
0.291186 0.0570625 0
0.300147 0.0681272 0
0.302065 0.0631378 0
0.256974 0.0480943 0
0.300046 0.0671069 0
0.300999 0.0644312 0
0.205496 0.0222206 0
0.296127 0.0566392 0
0.199619 0.0131126 0
0.299903 0.0656806 0
0.302628 0.0593163 0
0.11949 -0.00667557 0
0.21799 0.0338082 0
0.302654 0.0577524 0
0.274976 0.0507508 0
0.299763 0.0643062 0
0.229284 0.0376339 0
0.301675 0.0598294 0
0.235195 0.0392887 0
0.29955 0.0553508 0
0.299568 0.0624314 0
0.242594 0.041056 0
0.298339 0.0651195 0
0.300423 0.0594759 0
0.249268 0.0424012 0
0.298209 0.0637643 0
0.299378 0.0606422 0
0.301317 0.0567732 0
0.212048 0.0257524 0
0.289786 0.0512283 0
0.30105 0.0538632 0
0.258349 0.0439764 0
0.206573 0.0204971 0
0.298025 0.0618842 0
0.299119 0.0582658 0
0.266256 0.0450368 0
0.219241 0.0304868 0
0.297768 0.0593362 0
0.300851 0.052947 0
0.275414 0.0458235 0
0.29887 0.0560211 0
0.301165 0.0516425 0
0.189578 0.00381997 0
0.230527 0.0339298 0
0.299719 0.0535155 0
0.205219 0.0150622 0
0.296253 0.0600217 0
0.201254 0.0109163 0
0.297894 0.0491917 0
0.282619 0.046066 0
0.296202 0.0593965 0
0.241097 0.0361626 0
0.297421 0.0559862 0
0.296152 0.0587838 0
0.298537 0.0531244 0
0.296081 0.0579133 0
0.207838 0.0184811 0
0.300373 0.0494592 0
0.296011 0.0570641 0
0.289369 0.0456069 0
0.255797 0.038503 0
0.295911 0.0558787 0
0.29822 0.0504155 0
0.295812 0.0547298 0
0.22017 0.0273196 0
0.296963 0.051733 0
0.224745 0.0287729 0
0.29377 0.0447639 0
0.227632 0.0295189 0
0.295671 0.0531584 0
0.231353 0.0303292 0
0.272662 0.0400243 0
0.298929 0.0466182 0
0.299338 0.0452454 0
0.295533 0.051648 0
0.235192 0.0310767 0
0.297817 0.0470166 0
0.293878 0.0540632 0
0.209097 0.0165217 0
0.241107 0.0321136 0
0.296697 0.0431286 0
0.293787 0.052926 0
0.214484 0.0205351 0
0.29534 0.0496315 0
0.202771 0.0087337 0
0.246987 0.0329651 0
0.196732 0.00507769 0
0.296377 0.0465332 0
0.293658 0.0513593 0
0.29515 0.0477122 0
0.297449 0.0438804 0
0.255172 0.0339128 0
0.286918 0.039577 0
0.297769 0.0413728 0
0.293478 0.0492352 0
0.221098 0.0236853 0
0.262668 0.0344877 0
0.207471 0.0113025 0
0.294893 0.0452178 0
0.225289 0.0247787 0
0.191608 0.00101398 0
0.293233 0.0464283 0
0.271592 0.0347502 0
0.230231 0.0256444 0
0.291534 0.0485865 0
0.210557 0.0141987 0
0.296991 0.0400471 0
0.297531 0.0389338 0
0.294644 0.0428712 0
0.291498 0.048058 0
0.291462 0.0475395 0
0.295667 0.0404347 0
0.291413 0.046812 0
0.238513 0.0268073 0
0.278787 0.0345751 0
0.294532 0.0368605 0
0.291364 0.0461009 0
0.292907 0.0428365 0
0.204174 0.00648862 0
0 0 0
0.291293 0.0451151 0
0.294317 0.0399154 0
0.291224 0.0441571 0
0.296518 0.036581 0
0.221816 0.0201881 0
0.120916 -0.00808035 0
0.285647 0.0337275 0
0.251435 0.0281161 0
0.223152 0.0205085 0
0.291126 0.0428508 0
0.224267 0.0207212 0
0.225766 0.0209539 0
0.291029 0.0415913 0
0.294008 0.0371714 0
0.227396 0.0211933 0
0.211943 0.0119088 0
0.292493 0.0384115 0
0.290099 0.0325927 0
0.230053 0.021563 0
0.290896 0.0399107 0
0.267774 0.0287995 0
0.233009 0.0219428 0
0.288859 0.0422929 0
0.216659 0.014293 0
0.294911 0.0336012 0
0.295485 0.0325011 0
0.290766 0.0383068 0
0.288802 0.0413249 0
0.237685 0.022471 0
0.293634 0.0338278 0
0.209634 0.00725464 0
0.288721 0.0400163 0
0.292984 0.0307112 0
0.20545 0.00424747 0
0.2427 0.0229237 0
0.290594 0.0362216 0
0.193364 -0.00179062 0
0.28861 0.0382622 0
0.222458 0.0160709 0
0.29199 0.0331874 0
0.249986 0.0233893 0
0.290432 0.0342572 0
0.223807 0.0162333 0
0.282563 0.0277038 0
0.293316 0.0307599 0
0.161168 -0.00837318 0
0.213492 0.00917693 0
0.293931 0.0287648 0
0.28846 0.0359565 0
0.225748 0.0163615 0
0.257085 0.0235709 0
0.290226 0.0317711 0
0.229166 0.0165691 0
0.286161 0.0365249 0
0.199965 -0.000476751 0
0.286141 0.0360768 0
0.265907 0.0233959 0
0.288264 0.033009 0
0.286121 0.0356377 0
0.286095 0.0350351 0
0.206599 0.00192421 0
0.292881 0.0270479 0
0.28607 0.0344464 0
0.29352 0.0261478 0
0.290038 0.029449 0
0.235421 0.0168939 0
0.286035 0.0336416 0
0.273346 0.0228255 0
0.291386 0.0272265 0
0.286001 0.0328594 0
0.290556 0.0243752 0
0.222979 0.0120924 0
0.223384 0.012086 0
0.285953 0.0318017 0
0.288013 0.029361 0
0.21488 0.00646073 0
0.223795 0.012077 0
0.224395 0.0120542 0
0.285908 0.0307805 0
0.289804 0.0265628 0
0.246235 0.0172199 0
0.225029 0.0120336 0
0.280666 0.0215427 0
0.292372 0.0235795 0
0.226053 0.0120185 0
0.211656 0.00282099 0
0.285846 0.0294216 0
0.194798 -0.00461808 0
0.227172 0.0120098 0
0.285787 0.0281179 0
0.229002 0.0120203 0
0.218713 0.00701565 0
0.0662052 -0.00627289 0
0.289555 0.0238131 0
0.207607 -0.00040052 0
0.28552 0.0200174 0
0.283274 0.0301333 0
0.287698 0.0249503 0
0.231111 0.0120499 0
0.285708 0.026415 0
0.261618 0.0169607 0
0.283247 0.0293064 0
0.121975 -0.00942683 0
0.234566 0.012104 0
0.283208 0.0282183 0
0.290599 0.0203102 0
0.285629 0.0247791 0
0.291258 0.0193592 0
0.283153 0.0267834 0
0.216315 0.00321812 0
0.238535 0.0121383 0
0.22337 0.00744493 0
0.289213 0.020393 0
0.288642 0.0176972 0
0.223942 0.00734715 0
0.285526 0.0226702 0
0.28308 0.0249054 0
0.224815 0.00719566 0
0.244573 0.0120734 0
0.28727 0.0195846 0
0.277003 0.0149837 0
0.226199 0.00697044 0
0.208482 -0.00282801 0
0.285411 0.0206217 0
0.250923 0.0117965 0
0.288818 0.0171006 0
0.28298 0.022477 0
0.289572 0.0153379 0
0.195985 -0.00746205 0
0.280241 0.0242416 0
0.228566 0.00665167 0
0.280238 0.0238523 0
0.280234 0.0234695 0
0.280229 0.0229608 0
0.285239 0.0179961 0
0.202261 -0.00608625 0
0.21342 -0.00210902 0
0.259209 0.0110629 0
0.280225 0.0224611 0
0.217503 -1.56604e-05 0
0.282845 0.0193588 0
0.280219 0.0217914 0
0.232962 0.00620358 0
0.280213 0.0211338 0
0.223725 0.00297221 0
0.22394 0.00290269 0
0.224167 0.00283592 0
0.288219 0.013041 0
0.288924 0.0122345 0
0.280204 0.0202524 0
0.28504 0.0154371 0
0.266655 0.00994803 0
0.224492 0.00273108 0
0.224824 0.0026261 0
0.280193 0.0193864 0
0.209197 -0.00525828 0
0.285699 0.0106391 0
0.286584 0.0130549 0
0.225317 0.00247257 0
0.280177 0.0182286 0
0.225818 0.00231631 0
0.282642 0.0153731 0
0.241182 0.00547179 0
0.226573 0.00209735 0
0.280155 0.0170888 0
0.274346 0.00803587 0
0.220821 -0.00119126 0
0.284749 0.0122035 0
0.227358 0.0018729 0
0 0 0
0.28753 0.00915771 0
0.280115 0.0155782 0
0.228599 0.00157221 0
0.196868 -0.0103187 0
0.276881 0.0176794 0
0.162694 -0.0128671 0
0.280066 0.0140896 0
0.218533 -0.00385213 0
0.229998 0.00127352 0
0.276877 0.0169118 0
0.279658 0.00592555 0
0.122631 -0.010911 0
0.284414 0.00906685 0
0.27687 0.015925 0
0.209781 -0.00781 0
0.254448 0.00398126 0
0.282303 0.0103425 0
0.232302 0.000871371 0
0.279987 0.0121371 0
0.224331 -0.00205323 0
0.276857 0.0146346 0
0.224604 -0.00223491 0
0.225073 -0.00248725 0
0.235055 0.000458234 0
0.286129 0.00448698 0
0.279894 0.0102185 0
0.285459 0.00528563 0
0.276834 0.0129344 0
0.214729 -0.00766239 0
0.225805 -0.00285016 0
0.283147 0.00296659 0
0.283923 0.00520095 0
0.239447 -0.000184205 0
0.27679 0.0106956 0
0.279753 0.00774273 0
0.226895 -0.00338573 0
0.269773 0.000802104 0
0.210191 -0.0103662 0
0.203606 -0.0117776 0
0.21923 -0.00767137 0
0.281723 0.00415159 0
0.244488 -0.000980981 0
0.1975 -0.0131974 0
0.273427 0.011363 0
0.228553 -0.00417974 0
0.279589 0.00532229 0
0.27343 0.0109684 0
0.276707 0.0077691 0
0.284132 6.3837e-05 0
0.273432 0.0105774 0
0.283354 0.00147818 0
0.273433 0.0100768 0
0.273434 0.00958059 0
0.273432 0.0089329 0
0.224718 -0.00694375 0
0.251492 -0.00235802 0
0.224867 -0.00703458 0
0.225013 -0.00712625 0
0.27343 0.00829094 0
0.225217 -0.00726383 0
0.231385 -0.00534709 0
0.279341 0.00226672 0
0.22542 -0.00740262 0
0.273424 0.00744441 0
0.225708 -0.00760674 0
0.276553 0.00400222 0
0.273415 0.00660584 0
0.225996 -0.00781334 0
0.226404 -0.00811233 0
0.21045 -0.0130741 0
0.258414 -0.00411707 0
0.2734 0.00549729 0
0.283256 -0.00362884 0
0.282521 -0.00301317 0
0.226809 -0.00841663 0
0.279054 -0.00070604 0
0.27338 0.00440115 0
0.2794 -0.00482159 0
0.22219 -0.0105494 0
0.227375 -0.00885164 0
0.280739 -0.00324643 0
0.23675 -0.00711647 0
0.273349 0.00295894 0
0.219671 -0.012106 0
0.227937 -0.00929691 0
0.197833 -0.0160855 0
0.276272 -0.000746049 0
0.122889 -0.0123758 0
0.273309 0.00153686 0
0.266078 -0.00680621 0
0.215334 -0.0139529 0
0.228799 -0.00989491 0
0.278632 -0.00437275 0
0.269319 0.00399 0
0.281566 -0.00730371 0
0.273246 -0.000313753 0
0.269321 0.0031556 0
0.229691 -0.0105068 0
0.210525 -0.0157867 0
0.26932 0.00212172 0
0.224994 -0.0125143 0
0.225227 -0.0127052 0
0.273171 -0.00213304 0
0.271802 -0.00968951 0
0.246552 -0.00996158 0
0.269314 0.000810312 0
0.225577 -0.0129899 0
0.231096 -0.0113214 0
0.278145 -0.00792238 0
0.226082 -0.0134098 0
0.204008 -0.0175589 0
0.275777 -0.00659129 0
0.269298 -0.000876076 0
0.273052 -0.00446446 0
0.232682 -0.0121635 0
0.226786 -0.0140232 0
0.162816 -0.017559 0
0.279742 -0.0123294 0
0.219687 -0.0165215 0
0.269263 -0.0030541 0
0.279145 -0.0118348 0
0.1979 -0.0190061 0
0.272912 -0.00674865 0
0.2759 -0.0134698 0
0.22774 -0.0149113 0
0.23533 -0.0133278 0
0.210416 -0.0186812 0
0.27745 -0.0121976 0
0.269191 -0.00585627 0
0 0 0
0.272698 -0.00962421 0
0.26037 -0.0145929 0
0.265024 -0.00327833 0
0.229044 -0.0161826 0
0.238502 -0.0146294 0
0.265026 -0.00372449 0
0.265027 -0.00416745 0
0.0662026 -0.00749675 0
0.224704 -0.0180496 0
0.265028 -0.00470851 0
0.274928 -0.0136008 0
0.224822 -0.0181507 0
0.224941 -0.0182521 0
0.265029 -0.00524551 0
0.277174 -0.017031 0
0.225106 -0.0184027 0
0.269053 -0.00942519 0
0.272447 -0.0124299 0
0.265027 -0.0059183 0
0.22527 -0.0185543 0
0.276648 -0.0163019 0
0.225502 -0.0187759 0
0.265025 -0.00658562 0
0.22573 -0.0189997 0
0.243366 -0.0166094 0
0.265019 -0.0074367 0
0.230901 -0.0180125 0
0.22605 -0.0193223 0
0.214982 -0.0210527 0
0.122697 -0.0140294 0
0.265011 -0.00828004 0
0.210115 -0.0215779 0
0.226365 -0.0196491 0
0.197675 -0.0219427 0
0.264996 -0.00936567 0
0.226797 -0.020114 0
0.272076 -0.0158914 0
0.219283 -0.0215674 0
0.221843 -0.0212368 0
0.264977 -0.0104401 0
0.227218 -0.0205865 0
0.268799 -0.0139023 0
0.248887 -0.0189953 0
0.264946 -0.0118251 0
0.2762 -0.0214097 0
0.227784 -0.0212482 0
0.275505 -0.0211449 0
0.20349 -0.0234389 0
0.233773 -0.0207408 0
0.270962 -0.0217523 0
0.264908 -0.0131936 0
0.228331 -0.0219242 0
0.271647 -0.0192547 0
0.273518 -0.0217711 0
0.264847 -0.0149491 0
0.229039 -0.0228545 0
0.255495 -0.0225338 0
0.209589 -0.0246814 0
0.259833 -0.0117211 0
0.26835 -0.01941 0
0.223862 -0.0242845 0
0.264774 -0.0166798 0
0.259835 -0.012686 0
0.224047 -0.0244894 0
0.229721 -0.0238079 0
0.224323 -0.0247946 0
0.197193 -0.0249048 0
0.259832 -0.0138264 0
0.271028 -0.02331 0
0.274207 -0.0257751 0
0.224719 -0.0252435 0
0.26466 -0.0188778 0
0.259822 -0.0152116 0
0.230593 -0.0250988 0
0.239104 -0.0249647 0
0.225271 -0.0258952 0
0.218387 -0.0265817 0
0.261192 -0.0264259 0
0.2598 -0.0169288 0
0.264526 -0.0210386 0
0.226018 -0.0268306 0
0.231425 -0.0264306 0
0.270317 -0.0272366 0
0.259757 -0.0190837 0
0.208864 -0.0277823 0
0.267583 -0.0260334 0
0.264325 -0.0237438 0
0.226995 -0.02816 0
0.122053 -0.0155949 0
0.161534 -0.0225651 0
0.271626 -0.0310262 0
0.232558 -0.0282482 0
0.213382 -0.029004 0
0.259676 -0.0217989 0
0.271289 -0.0310584 0
0.265875 -0.031373 0
0.196436 -0.0278849 0
0.264089 -0.0263946 0
0.228228 -0.0300332 0
0.269325 -0.0318709 0
0.222433 -0.0304164 0
0.254295 -0.020118 0
0.222523 -0.0305225 0
0.222613 -0.0306289 0
0.233839 -0.0301418 0
0.202082 -0.0294175 0
0.254296 -0.0206433 0
0.248875 -0.0313055 0
0.222742 -0.0307861 0
0.259529 -0.0252092 0
0.222869 -0.0309441 0
0.254297 -0.021166 0
0.223051 -0.0311741 0
0.254297 -0.0217742 0
0.22323 -0.0314057 0
0.263743 -0.0296564 0
0.254296 -0.0223792 0
0.223482 -0.0317383 0
0.254292 -0.0231027 0
0.22373 -0.032074 0
0.207855 -0.0311103 0
0.254287 -0.023822 0
0.216886 -0.0321915 0
0.267736 -0.035918 0
0.22407 -0.0325496 0
0.266319 -0.0338075 0
0.254278 -0.0247021 0
0.229697 -0.0326659 0
0.224404 -0.0330314 0
0.236305 -0.0326438 0
0.259271 -0.0294513 0
0.254265 -0.0255764 0
0.263343 -0.0328409 0
0.268184 -0.0363258 0
0.219132 -0.0331582 0
0 0 0
0.224849 -0.0337051 0
0.254245 -0.0266634 0
0.195436 -0.0308836 0
0.22528 -0.0343909 0
0.254221 -0.0277422 0
0.254183 -0.0290954 0
0.225837 -0.0353387 0
0.239367 -0.0354842 0
0.262773 -0.0366849 0
0.254138 -0.0304364 0
0.258829 -0.0346517 0
0.226366 -0.036311 0
0.231266 -0.0363608 0
0.267135 -0.0412506 0
0.206648 -0.0344293 0
0.254069 -0.0321215 0
0.266665 -0.0415113 0
0.259439 -0.0401916 0
0.120895 -0.0173907 0
0.227023 -0.0376403 0
0.220237 -0.0371874 0
0.253987 -0.0337883 0
0.220392 -0.0374023 0
0.262123 -0.0404247 0
0.220618 -0.0377219 0
0.247611 -0.0297734 0
0.243697 -0.0395508 0
0.264321 -0.0427063 0
0.22094 -0.0381906 0
0.227611 -0.0390166 0
0.253866 -0.0358736 0
0.247611 -0.0309336 0
0.214863 -0.0377372 0
0.194194 -0.033888 0
0.221386 -0.0388685 0
0.247605 -0.0322454 0
0.199826 -0.0354781 0
0.258096 -0.040909 0
0.210227 -0.0377899 0
0.253726 -0.0379316 0
0.221982 -0.0398375 0
0.228292 -0.040865 0
0.247589 -0.0337692 0
0.264968 -0.0464258 0
0.233356 -0.0416927 0
0.261225 -0.0448387 0
0.247557 -0.0355814 0
0.222747 -0.041208 0
0.205092 -0.0379848 0
0.248354 -0.0442615 0
0.253521 -0.0404818 0
0.22884 -0.0427758 0
0.158816 -0.0278352 0
0.247501 -0.0377754 0
0.253284 -0.0429915 0
0.223675 -0.0431282 0
0.0643089 -0.00875375 0
0.260216 -0.0491188 0
0.247403 -0.0404609 0
0.192733 -0.0368991 0
0.229366 -0.0452618 0
0.256917 -0.0482738 0
0.252946 -0.0460593 0
0.261129 -0.0515862 0
0.21743 -0.0438014 0
0.217501 -0.0439115 0
0.21757 -0.0440219 0
0.217673 -0.0441848 0
0.252494 -0.0504278 0
0.217776 -0.0443485 0
0.224705 -0.0457928 0
0.261279 -0.0525652 0
0.217923 -0.0445866 0
0.247236 -0.0437606 0
0.218068 -0.044826 0
0.218272 -0.0451693 0
0.212096 -0.0437904 0
0.203344 -0.0415151 0
0.240491 -0.0395075 0
0.229793 -0.0477873 0
0.218472 -0.0455153 0
0.119262 -0.0189796 0
0.25256 -0.0490681 0
0.240491 -0.0401489 0
0.237381 -0.049595 0
0.218746 -0.046004 0
0.240491 -0.0407884 0
0.258838 -0.0540472 0
0.219012 -0.0464979 0
0.240488 -0.0414998 0
0.240483 -0.0422089 0
0.219366 -0.047185 0
0.24696 -0.0478026 0
0.240475 -0.0430181 0
0.213671 -0.046048 0
0.219705 -0.0478816 0
0.240464 -0.0438242 0
0.225737 -0.0494402 0
0.252022 -0.0526843 0
0.196758 -0.0415922 0
0.240448 -0.0447664 0
0.191069 -0.0398968 0
0.254748 -0.0563762 0
0.230292 -0.0510951 0
0.220138 -0.0488364 0
0.240428 -0.0457045 0
0.255083 -0.0567255 0
0.220544 -0.0498072 0
0.240399 -0.0468232 0
0.257266 -0.0588059 0
0 0 0
0.240364 -0.0479362 0
0.246508 -0.0527087 0
0.251412 -0.0562166 0
0.221036 -0.0511177 0
0.240314 -0.0492831 0
0.201192 -0.045273 0
0.230833 -0.0545601 0
0.240257 -0.0506215 0
0.221484 -0.0524517 0
0.205288 -0.0472842 0
0.226645 -0.0543276 0
0.240174 -0.0522548 0
0.213718 -0.050899 0
0.213851 -0.0511195 0
0.214042 -0.0514468 0
0.208816 -0.0497123 0
0.250581 -0.0603805 0
0.221989 -0.0542251 0
0.254958 -0.063144 0
0.214311 -0.0519254 0
0.240079 -0.0538753 0
0.24453 -0.0604093 0
0.189205 -0.0428781 0
0.245789 -0.0585789 0
0.214681 -0.052615 0
0.255238 -0.0642792 0