# vtk DataFile Version 3.0
File generated from DClib
ASCII

DATASET UNSTRUCTURED_GRID
POINTS 1909 float
50 0 0 
48.75 0 0 
50 1.66667 0 
47.5 0 0 
50 3.33333 0 
46.25 0 0 
50 5 0 
45 0 0 
43.75 0 0 
50 6.66667 0 
43 2 0 
42.5 0 0 
50 8.33333 0 
43 4.66667 0 
41.25 0 0 
41.075 2 0 
50 10 0 
40 0 0 
43 7.33333 0 
39.15 2 0 
38.75 0 0 
43 10 0 
37.5 0 0 
37.225 2 0 
36.25 0 0 
36 4 0 
35.3 2 0 
36 5 0 
35 0 0 
35.325 4 0 
36 6 0 
36 7 0 
34.65 4 0 
36 8 0 
33.75 0 0 
33.975 4 0 
36 9 0 
33.375 2 0 
33.3 4 0 
36 10 0 
32.5 0 0 
32.625 4 0 
33 6 0 
31.95 4 0 
33 7.45455 0 
31.45 2 0 
31.25 0 0 
31.95 6 0 
33 8.79545 0 
31.275 4 0 
33 10 0 
30.6 4 0 
30 0 0 
30.9 6 0 
29.925 4 0 
29.525 2 0 
29.85 6 0 
29.25 4 0 
28.75 0 0 
30 8 0 
30 8.45455 0 
28.575 4 0 
29.625 8 0 
30 8.90909 0 
28.8 6 0 
30 9.25 0 
29.782 8.90909 0 
30 9.59091 0 
29.9487 9.59091 0 
29.25 8 0 
29.7462 9.25 0 
30 9.79545 0 
29.897 9.59091 0 
29.564 8.90909 0 
29.9547 9.79545 0 
29.3462 8.45455 0 
29.84 9.59091 0 
30 10 0 
29.8975 9.79545 0 
29.9882 10 0 
29.9902 10.0098 0 
29.7827 9.59091 0 
29.9765 10 0 
29.9804 10.0196 0 
29.9667 10.0098 0 
29.9591 10 0 
29.9686 10.0196 0 
29.9659 10.0341 0 
29.9569 10.0196 0 
29.9418 10 0 
29.9395 10.0196 0 
29.9515 10.0485 0 
29.932 10.0098 0 
29.9424 10.0341 0 
29.8241 9.79545 0 
29.7181 9.59091 0 
29.9166 10 0 
29.9397 10.0485 0 
29.9222 10.0196 0 
29.9279 10.0485 0 
29.9305 10.0695 0 
29.8914 10 0 
29.9077 10.0341 0 
27.9 4 0 
29.897 10.0196 0 
29.9106 10.0485 0 
29.8817 10.0098 0 
29.907 10.0695 0 
29.8933 10.0485 0 
29.9095 10.0905 0 
29.8719 10.0196 0 
27.6 2 0 
29.8556 10 0 
29.8978 10.0905 0 
29.6531 9.59091 0 
29.3437 8.90909 0 
27.5 0 0 
29.8681 10.0485 0 
29.886 10.0905 0 
29.8574 10.0341 0 
29.4839 9.25 0 
29.8723 10.0695 0 
29.7289 9.79545 0 
29.836 10.0196 0 
29.8687 10.0905 0 
29.8197 10 0 
29.8797 10.1203 0 
29.843 10.0485 0 
29.8513 10.0905 0 
29.81 10.0098 0 
29.8561 10.1203 0 
29.8002 10.0196 0 
29.8221 10.0695 0 
29.8072 10.0485 0 
29.8262 10.0905 0 
29.5782 9.59091 0 
29.8498 10.1502 0 
29.7695 10 0 
29.7858 10.0341 0 
29.838 10.1502 0 
29.8215 10.1203 0 
29.8011 10.0905 0 
29.8262 10.1502 0 
29.7714 10.0485 0 
28.875 8 0 
29.75 10.0196 0 
29.8089 10.1502 0 
29.7654 10.0905 0 
29.7193 10 0 
29.7916 10.1502 0 
29.7505 10.0695 0 
29.8079 10.1921 0 
29.7713 10.1203 0 
29.7096 10.0098 0 
29.6047 9.79545 0 
29.503 9.59091 0 
29.7213 10.0485 0 
29.7665 10.1502 0 
29.6999 10.0196 0 
29.7844 10.1921 0 
29.7296 10.0905 0 
29.6856 10.0341 0 
29.7414 10.1502 0 
29.7497 10.1921 0 
29.6503 10 0 
29.7661 10.2339 0 
29.6712 10.0485 0 
29.6999 10.1203 0 
29.7543 10.2339 0 
29.6796 10.0905 0 
29.7057 10.1502 0 
29.7425 10.2339 0 
29.1235 8.90909 0 
29.6309 10.0196 0 
29.6504 10.0695 0 
29.4146 9.59091 0 
29.7252 10.2339 0 
29.6996 10.1921 0 
29.6701 10.1502 0 
29.7079 10.2339 0 
29.6296 10.0905 0 
29.5813 10 0 
29.6023 10.0485 0 
29.5716 10.0098 0 
29.6828 10.2339 0 
29.7086 10.2914 0 
29.2101 9.25 0 
29.562 10.0196 0 
29.6201 10.1502 0 
29.6578 10.2339 0 
29.4428 9.79545 0 
29.5999 10.1203 0 
29.6849 10.2914 0 
29.6283 10.1921 0 
29.5477 10.0341 0 
29.3259 9.59091 0 
29.5608 10.0905 0 
29.5335 10.0485 0 
29.6221 10.2339 0 
29.6503 10.2914 0 
29.5702 10.1502 0 
29.4881 10 0 
29.5128 10.0695 0 
29.6511 10.3489 0 
29.5866 10.2339 0 
29.6392 10.3489 0 
29.4689 10.0196 0 
29.6002 10.2914 0 
29.6273 10.3489 0 
29.4921 10.0905 0 
29.61 10.3489 0 
29.5286 10.1921 0 
29.5016 10.1502 0 
29.5368 10.2339 0 
29.5926 10.3489 0 
29.4405 10.0485 0 
29.2199 9.59091 0 
29.4626 10.1203 0 
29.3949 10 0 
28.9 8.90909 0 
29.5676 10.3489 0 
29.5291 10.2914 0 
29.3853 10.0098 0 
28.6923 8.45455 0 
29.487 10.2339 0 
29.5426 10.3489 0 
29.3758 10.0196 0 
29.5734 10.4266 0 
29.4331 10.1502 0 
29.3993 10.0905 0 
28.5 8 0 
29.3617 10.0341 0 
29.5496 10.4266 0 
29.5071 10.3489 0 
29.2327 9.79545 0 
29.3475 10.0485 0 
29.1136 9.59091 0 
29.4187 10.2339 0 
29.5148 10.4266 0 
29.4716 10.3489 0 
29.3918 10.1921 0 
29.3271 10.0695 0 
29.4298 10.2914 0 
29.2714 10 0 
29.3406 10.1502 0 
28.9208 9.25 0 
29.3066 10.0905 0 
29.4648 10.4266 0 
29.422 10.3489 0 
29.4958 10.5042 0 
29.2524 10.0196 0 
27.75 6 0 
29.3504 10.2339 0 
29.4837 10.5042 0 
29.4718 10.5042 0 
29.2774 10.1203 0 
29.4543 10.5042 0 
29.3724 10.3489 0 
29.2244 10.0485 0 
29.4369 10.5042 0 
29.3938 10.4266 0 
28.9853 9.59091 0 
29.2481 10.1502 0 
28.6766 8.90909 0 
29.4119 10.5042 0 
29.2934 10.2914 0 
27.225 4 0 
29.148 10 0 
29.2582 10.2339 0 
29.1837 10.0905 0 
29.3869 10.5042 0 
29.1385 10.0098 0 
29.3044 10.3489 0 
29.1291 10.0196 0 
29.2072 10.1921 0 
29.3514 10.5042 0 
29.1152 10.0341 0 
29.3929 10.6071 0 
29.2949 10.4266 0 
29.1013 10.0485 0 
29.3686 10.6071 0 
29.316 10.5042 0 
29.2364 10.3489 0 
28.9623 9.79545 0 
29.1257 10.1502 0 
29.1662 10.2339 0 
29.0811 10.0695 0 
28.8566 9.59091 0 
29.3336 10.6071 0 
29.2666 10.5042 0 
29.0609 10.0905 0 
28.9875 10 0 
29.2835 10.6071 0 
29.1448 10.3489 0 
29.0321 10.1203 0 
29.2173 10.5042 0 
29.1098 10.2914 0 
28.125 8 0 
28.9688 10.0196 0 
29.1594 10.4266 0 
28.611 9.25 0 
29.29 10.71 0 
28.4486 8.90909 0 
29.0443 10.2339 0 
29.0033 10.1502 0 
29.2777 10.71 0 
28.9413 10.0485 0 
29.2128 10.6071 0 
29.2655 10.71 0 
29.1497 10.5042 0 
29.2478 10.71 0 
28.7003 9.59091 0 
29.0533 10.3489 0 
29.2303 10.71 0 
28.9629 10.1921 0 
28.9013 10.0905 0 
29.2051 10.71 0 
29.0822 10.5042 0 
29.1801 10.71 0 
28.827 10 0 
29.1144 10.6071 0 
28.8177 10.0098 0 
28.9225 10.2339 0 
28.8085 10.0196 0 
29.1447 10.71 0 
28.7949 10.0341 0 
28.8443 10.1502 0 
28.977 10.4266 0 
28.9322 10.3489 0 
29.1094 10.71 0 
28.7813 10.0485 0 
28.9912 10.5042 0 
29.1562 10.8438 0 
28.5436 9.59091 0 
28.7615 10.0695 0 
28.8669 10.2914 0 
29.1313 10.8438 0 
28.6184 9.79545 0 
29.0602 10.71 0 
28.2207 8.90909 0 
28.7418 10.0905 0 
28.0378 8.45455 0 
28.9798 10.6071 0 
29.0958 10.8438 0 
29.0112 10.71 0 
28.9005 10.5042 0 
28.7136 10.1203 0 
28.7644 10.2339 0 
28.8113 10.3489 0 
29.0454 10.8438 0 
28.6223 10 0 
28.6854 10.1502 0 
28.2746 9.25 0 
28.9441 10.71 0 
28.6042 10.0196 0 
27.75 8 0 
28.9747 10.8438 0 
28.6459 10.1921 0 
28.5773 10.0485 0 
29.0225 10.9775 0 
28.3532 9.59091 0 
28.7804 10.5042 0 
28.736 10.4266 0 
28.8772 10.71 0 
29.0097 10.9775 0 
28.9971 10.9775 0 
28.799 10.6071 0 
28.9791 10.9775 0 
28.5384 10.0905 0 
28.6064 10.2339 0 
28.6543 10.3489 0 
28.9611 10.9775 0 
28.8769 10.8438 0 
27.9867 8.90909 0 
26.25 0 0 
28.9358 10.9775 0 
28.7871 10.71 0 
28.9106 10.9775 0 
28.6607 10.5042 0 
28.4177 10 0 
26.55 4 0 
28.552 10.2914 0 
28.483 10.1502 0 
28.4087 10.0098 0 
28.8751 10.9775 0 
28.3998 10.0196 0 
28.3866 10.0341 0 
28.8399 10.9775 0 
28.6974 10.71 0 
28.3735 10.0485 0 
28.1625 9.59091 0 
28.7436 10.8438 0 
28.4976 10.3489 0 
28.3543 10.0695 0 
28.791 10.9775 0 
28.4052 10.2339 0 
28.3352 10.0905 0 
28.8519 11.1481 0 
28.1869 9.79545 0 
28.5607 10.6071 0 
28.5053 10.5042 0 
28.7423 10.9775 0 
28.8258 11.1481 0 
28.308 10.1203 0 
28.5787 10.71 0 
27.904 9.25 0 
28.7893 11.1481 0 
28.424 10.4266 0 
27.7528 8.90909 0 
28.2807 10.1502 0 
28.6758 10.9775 0 
27.375 8 0 
28.7383 11.1481 0 
28.1619 10 0 
28.5649 10.8438 0 
28.2425 10.1921 0 
28.6096 10.9775 0 
28.1444 10.0196 0 
28.298 10.3489 0 
28.4605 10.71 0 
26.7 6 0 
27.9315 9.59091 0 
28.3503 10.5042 0 
28.6676 11.1481 0 
28.1187 10.0485 0 
28.2042 10.2339 0 
28.5207 10.9775 0 
28.0813 10.0905 0 
28.6814 11.3186 0 
27.3818 8.45455 0 
28.6679 11.3186 0 
28.1516 10.2914 0 
28.5703 11.1481 0 
28.6544 11.3186 0 
28.6358 11.3186 0 
27.5109 8.90909 0 
28.3072 10.71 0 
28.6173 11.3186 0 
28.2524 10.6071 0 
28.4322 10.9775 0 
28.028 10.1502 0 
28.5915 11.3186 0 
28.0989 10.3489 0 
28.33 10.8438 0 
28.5658 11.3186 0 
28.153 10.5042 0 
27.9061 10 0 
27.8975 10.0098 0 
28.5303 11.3186 0 
28.4384 11.1481 0 
27.7002 9.59091 0 
27.889 10.0196 0 
27.8765 10.0341 0 
28.4949 11.3186 0 
28.3154 10.9775 0 
27.9532 10.2339 0 
27.8639 10.0485 0 
28.0276 10.4266 0 
28.1544 10.71 0 
27.8457 10.0695 0 
27.4909 9.25 0 
28.4463 11.3186 0 
27 8 0 
27.8275 10.0905 0 
28.3979 11.3186 0 
27.8015 10.1203 0 
27.6542 9.79545 0 
25.675 2 0 
28.1991 10.9775 0 
27.2691 8.90909 0 
27.9563 10.5042 0 
28.4682 11.5318 0 
28.2625 11.1481 0 
27.7755 10.1502 0 
28.3322 11.3186 0 
27.8502 10.3489 0 
28.4401 11.5318 0 
25.875 4 0 
27.7391 10.1921 0 
28.4019 11.5318 0 
28.0268 10.8438 0 
28.2668 11.3186 0 
27.9602 10.71 0 
28.3498 11.5318 0 
27.4223 9.59091 0 
27.7026 10.2339 0 
27.5927 10 0 
28.0486 10.9775 0 
27.8616 10.6071 0 
27.5762 10.0196 0 
28.1794 11.3186 0 
28.2786 11.5318 0 
27.5519 10.0485 0 
27.6524 10.2914 0 
28.0319 11.1481 0 
27.7108 10.5042 0 
27.5167 10.0905 0 
27.0169 8.90909 0 
28.0924 11.3186 0 
27.6021 10.3489 0 
27.8988 10.9775 0 
28.1818 11.5318 0 
27.7667 10.71 0 
26.625 8 0 
28.255 11.745 0 
27.4664 10.1502 0 
28.2402 11.745 0 
28.2256 11.745 0 
28.2059 11.745 0 
27.978 11.3186 0 
26.7234 8.45455 0 
27.0259 9.25 0 
27.5342 10.4266 0 
28.1863 11.745 0 
27.1442 9.59091 0 
28.0516 11.5318 0 
28.1598 11.745 0 
27.3959 10.2339 0 
28.1334 11.745 0 
27.2793 10 0 
27.2714 10.0098 0 
27.2635 10.0196 0 
27.7086 10.9775 0 
27.6431 10.8438 0 
28.0975 11.745 0 
27.8643 11.3186 0 
27.4661 10.5042 0 
27.2518 10.0341 0 
27.2401 10.0485 0 
28.0617 11.745 0 
26.7648 8.90909 0 
27.5255 10.71 0 
27.7353 11.1481 0 
27.2231 10.0695 0 
28.0133 11.745 0 
27.2061 10.0905 0 
27.8791 11.5318 0 
27.2986 10.3489 0 
27.1818 10.1203 0 
27.9651 11.745 0 
27.3758 10.6071 0 
27.0077 9.79545 0 
27.7174 11.3186 0 
27.1576 10.1502 0 
25 0 0 
27.5193 10.9775 0 
27.9003 11.745 0 
27.1236 10.1921 0 
26.25 8 0 
27.9939 12.0061 0 
25.65 6 0 
27.8359 11.745 0 
26.8136 9.59091 0 
27.0896 10.2339 0 
27.9626 12.0061 0 
27.2853 10.71 0 
25.2 4 0 
27.5713 11.3186 0 
27.9218 12.0061 0 
26.4998 8.90909 0 
27.167 10.5042 0 
27.6541 11.5318 0 
27.0427 10.2914 0 
27.7503 11.745 0 
26.9033 10 0 
27.8677 12.0061 0 
26.8882 10.0196 0 
26.8659 10.0485 0 
26.9958 10.3489 0 
27.2836 10.9775 0 
27.6652 11.745 0 
27.3609 11.1481 0 
27.7955 12.0061 0 
26.499 9.25 0 
[...]
POINT_DATA 1909
SCALARS phi float 1
LOOKUP_TABLE default
VECTORS Displacement float
0 0 0
0 0 0
0 -0.00104849 0
0 0 0
0 -0.00142973 0
0 0 0
0 -0.0012006 0
0 0 0
0 0 0
0 -0.000429693 0
0.00309602 -0.000958106 0
0 0 0
0 0.00084999 0
0.00606818 -0.000588702 0
0 0 0
0.00415474 -0.000947078 0
0 0.00257331 0
0 0 0
0.00812557 0.00136095 0
0.00530641 -0.000963143 0
0 0 0
0.00934657 0.00441493 0
0 0 0
0.00652709 -0.00102712 0
0 0 0
0.0124729 -0.00073018 0
0.00775273 -0.00113877 0
0.0148482 -2.77777e-05 0
0 0 0
0.0133491 -0.000792002 0
0.0166524 0.000956222 0
0.0179528 0.00215982 0
0.0142009 -0.000866724 0
0.0188678 0.00348955 0
0 0 0
0.0150425 -0.000985342 0
0.0194396 0.00489515 0
0.00891362 -0.00129175 0
0.0158563 -0.00111943 0
0.0197284 0.00630574 0
0 0 0
0.0166267 -0.00127927 0
0.0215351 0.000319481 0
0.0173592 -0.00145446 0
0.0239163 0.00219402 0
0.00994674 -0.00148004 0
0 0 0
0.0231781 -0.000355081 0
0.0251655 0.00446734 0
0.0180373 -0.00164825 0
0.0252025 0.0068802 0
0.0186657 -0.0018566 0
0 0 0
0.024547 -0.00102493 0
0.0192365 -0.00208045 0
0.0107971 -0.00169997 0
0.0257087 -0.00173941 0
0.0197472 -0.00231892 0
0 0 0
0.0301055 -0.000215338 0
0.0309481 0.000301271 0
0.0201979 -0.00257047 0
0.0306297 -0.000677569 0
0.0317738 0.000895559 0
0.0266686 -0.00251286 0
0.0323026 0.00145385 0
0.0321575 0.00052768 0
0.0327527 0.00212151 0
0.0328734 0.00193072 0
0.0310935 -0.00114197 0
0.0327753 0.000908805 0
0.0329691 0.00258811 0
0.032978 0.00175815 0
0.0325034 0.000156298 0
0.0330816 0.00232859 0
0.0319231 -0.000639169 0
0.0330793 0.0015877 0
0.0329879 0.00313145 0
0.0332098 0.00207755 0
0.0330401 0.00306998 0
0.0338725 0.00337425 0
0.0331752 0.00143576 0
0.0330977 0.00300993 0
0.034148 0.00337609 0
0.0337963 0.00318937 0
0.033182 0.00291075 0
0.0341282 0.00328235 0
0.0342373 0.00327085 0
0.0341049 0.00319193 0
0.0332667 0.00282085 0
0.0340628 0.00305904 0
0.0343073 0.00316439 0
0.0337622 0.00293518 0
0.0342234 0.00309407 0
0.0333711 0.00184334 0
0.0332828 0.00128803 0
0.0333852 0.002694 0
0.0343028 0.00307837 0
0.0340283 0.00293867 0
0.0342996 0.0029974 0
0.0344203 0.00302075 0
0.0334998 0.00258642 0
0.0341959 0.0028712 0
0.02058 -0.00283829 0
0.0340011 0.00278443 0
0.0342969 0.00289154 0
0.0338061 0.00264922 0
0.0344158 0.00287259 0
0.0342962 0.0027993 0
0.0345369 0.00289045 0
0.034005 0.00265753 0
0.0114146 -0.00194963 0
0.0336514 0.00245418 0
0.0345351 0.00282366 0
0.0333934 0.00115457 0
0.0328305 -0.000205578 0
0 0 0
0.0343015 0.00268526 0
0.0345352 0.00276563 0
0.0341846 0.0026277 0
0.0331913 0.00040667 0
0.0344195 0.00270466 0
0.0335873 0.00162367 0
0.0340398 0.00250316 0
0.0345394 0.00269083 0
0.0337945 0.00233919 0
0.0347181 0.00273707 0
0.0343104 0.00258349 0
0.0345466 0.00262396 0
0.0339692 0.00236697 0
0.0347216 0.00264467 0
0.0341027 0.00237148 0
0.0344463 0.00251425 0
0.0343361 0.00245046 0
0.0345618 0.00253651 0
0.0335234 0.0010143 0
0.034898 0.00261999 0
0.033974 0.00220289 0
0.0342519 0.00235654 0
0.0349018 0.00258389 0
0.0347373 0.00253057 0
0.0345821 0.0024548 0
0.0349069 0.00254907 0
0.0343732 0.00232988 0
0.0315432 -0.00161708 0
0.0342018 0.00221328 0
0.0349155 0.00250008 0
0.0346177 0.00234664 0
0.034137 0.00207076 0
0.0349259 0.00245252 0
0.0345199 0.00228548 0
0.0351626 0.00249805 0
0.0347757 0.00238344 0
0.0342288 0.00207157 0
0.0338716 0.00138816 0
0.0336592 0.000879994 0
0.0344441 0.00217816 0
0.034944 0.00238575 0
0.0343162 0.00206833 0
0.0351682 0.00244077 0
0.0346598 0.0022461 0
0.0344269 0.00205547 0
0.0349648 0.00232127 0
0.0351836 0.00235817 0
0.0343287 0.00190119 0
0.0354048 0.00239651 0
0.0345299 0.00203999 0
0.0348513 0.00219506 0
0.0354075 0.00237185 0
0.0347275 0.00211434 0
0.0349985 0.00223232 0
0.035411 0.00234695 0
0.0331379 -0.000558914 0
0.0344658 0.00189109 0
0.0346681 0.0020156 0
0.0338167 0.000725443 0
0.0354175 0.00230996 0
0.0352166 0.00224125 0
0.0350352 0.00214597 0
0.0354255 0.00227271 0
0.0347999 0.00198981 0
0.0344948 0.00172863 0
0.0346537 0.00186642 0
0.0345553 0.00172397 0
0.0354387 0.00221864 0
0.0357166 0.00227522 0
0.0336097 -6.38309e-05 0
0.0346149 0.00171855 0
0.0350919 0.00202695 0
0.035454 0.00216414 0
0.0342142 0.00108845 0
0.0349796 0.00195097 0
0.0357209 0.00222975 0
0.0352774 0.00207751 0
0.0346993 0.00170862 0
0.0339769 0.000570211 0
0.0349066 0.00182195 0
0.0347825 0.00169729 0
0.0354787 0.00208604 0
0.0357314 0.00216116 0
0.0351513 0.0019096 0
0.0346904 0.00151772 0
0.0349005 0.00167855 0
0.0359956 0.00216138 0
0.035506 0.0020072 0
0.0359975 0.00213973 0
0.0347936 0.00150487 0
0.0357536 0.00205858 0
0.0359998 0.00211778 0
0.0350156 0.00165746 0
0.0360039 0.00208497 0
0.0353788 0.00184823 0
0.0352387 0.00174754 0
0.0355482 0.00189566 0
0.0360089 0.00205153 0
0.0349455 0.00148191 0
0.0341595 0.000381343 0
0.0351747 0.0016239 0
0.0348652 0.0013066 0
0.0334334 -0.000913231 0
0.0360174 0.00200219 0
0.0357958 0.0019073 0
0.0349139 0.00129985 0
0.0327337 -0.00156323 0
0.0355939 0.00178304 0
0.0360274 0.00195181 0
0.0349626 0.00129267 0
0.0363346 0.00201271 0
0.0353284 0.00158708 0
0.0351594 0.00144149 0
0.0319457 -0.00210625 0
0.0350324 0.00128129 0
0.036338 0.00196923 0
0.0360437 0.00187859 0
0.0346022 0.000685263 0
0.0351017 0.00126904 0
0.0343396 0.000187936 0
0.0356612 0.0016267 0
0.0363453 0.00190363 0
0.0360624 0.00180386 0
0.0355349 0.00153087 0
0.0352011 0.00124965 0
0.0358692 0.0016884 0
0.0350739 0.00104095 0
0.0354502 0.00137245 0
0.0340316 -0.000555454 0
0.0352992 0.00122863 0
0.03636 0.00180533 0
0.0360917 0.00169722 0
0.036636 0.00186411 0
0.035161 0.00102438 0
0.0274122 -0.00334546 0
0.0357316 0.00147004 0
0.0366374 0.0018422 0
0.0366391 0.00182009 0
0.0354364 0.00119584 0
0.0366421 0.00178734 0
0.0361242 0.00158874 0
0.0352892 0.000997389 0
0.0366455 0.00175416 0
0.0363882 0.00165975 0
0.0345436 -5.13826e-05 0
0.0355703 0.00116016 0
0.0337137 -0.00127272 0
0.0366513 0.00170547 0
0.0359866 0.0013802 0
0.0208986 -0.00311572 0
0.0352642 0.000771184 0
0.0358293 0.00125807 0
0.0354714 0.000953402 0
0.0366579 0.00165598 0
0.0353055 0.000762056 0
0.0361729 0.0014373 0
0.0353466 0.000752652 0
0.0357523 0.00110569 0
0.0366688 0.00158425 0
0.0354063 0.000738301 0
0.0369884 0.00166523 0
0.0364385 0.00144787 0
0.0354655 0.000723364 0
0.0369911 0.00161986 0
0.0366813 0.00151117 0
0.0362248 0.00128409 0
0.0350333 0.000143807 0
0.0357226 0.000881693 0
0.0359274 0.0010466 0
0.0355507 0.000700626 0
0.0347394 -0.000296936 0
0.0369965 0.00155264 0
0.036701 0.00140692 0
0.0356349 0.000676706 0
0.0354906 0.000422575 0
0.0370066 0.0014534 0
0.0362985 0.00107498 0
0.035753 0.000640574 0
0.036723 0.0013007 0
0.0361572 0.000958786 0
0.0323193 -0.00260901 0
0.0355655 0.000401631 0
0.0365216 0.00114642 0
0.0344451 -0.00109899 0
0.0372957 0.00146232 0
0.0339796 -0.00164606 0
0.0360555 0.000765847 0
0.0358689 0.000602241 0
0.0372969 0.00143885 0
0.0356751 0.000368991 0
0.0370255 0.00130799 0
0.0372982 0.0014153 0
0.0367564 0.00115198 0
0.0373005 0.00138091 0
0.0349592 -0.00060194 0
0.0363742 0.000864321 0
0.037303 0.00134626 0
0.0360272 0.000544971 0
0.0358312 0.000318157 0
0.037307 0.00129597 0
0.0367926 0.00100073 0
0.0373116 0.00124511 0
0.0356978 6.79293e-05 0
0.0370589 0.00109747 0
0.035733 5.65293e-05 0
0.0361806 0.000483908 0
0.035768 4.49277e-05 0
0.037319 0.00117201 0
0.035819 2.74671e-05 0
0.0360473 0.000238943 0
0.0366476 0.000727999 0
0.0364757 0.000582389 0
0.0373273 0.00109787 0
0.0358697 9.57828e-06 0
0.0368448 0.000793221 0
0.0376378 0.00119128 0
0.0351648 -0.000913506 0
0.0359425 -1.7126e-05 0
0.0363834 0.000394152 0
0.0376402 0.00114164 0
0.0354984 -0.000573648 0
0.0373404 0.000992643 0
0.0342242 -0.0020285 0
0.0360145 -4.46992e-05 0
0.033398 -0.00253905 0
0.0371151 0.000797635 0
0.0376442 0.00106962 0
0.0373548 0.000885695 0
0.0368996 0.000582808 0
0.0361157 -8.54872e-05 0
0.0363359 0.000115801 0
0.0365766 0.000298391 0
0.0376514 0.000965171 0
0.0359387 -0.000388187 0
0.0362152 -0.000127952 0
0.0348401 -0.00171195 0
0.0373768 0.000736261 0
0.0360025 -0.00041336 0
0.0326427 -0.00312537 0
0.0376641 0.000814397 0
0.0363513 -0.000190171 0
0.0360957 -0.00045177 0
0.0379247 0.000910767 0
0.0353924 -0.00129894 0
0.0369747 0.000300003 0
0.0368222 0.000160595 0
0.0374008 0.000584307 0
0.0379257 0.000884485 0
0.0379269 0.000858204 0
0.0372025 0.000379132 0
0.0379286 0.00082057 0
0.0362284 -0.000510087 0
0.0364837 -0.000255426 0
0.0367045 -7.40403e-05 0
0.0379305 0.00078282 0
0.0376859 0.000598629 0
0.0344527 -0.00242804 0
0 0 0
0.0379334 0.000728831 0
0.0374357 0.000375781 0
0.0379366 0.000674507 0
0.0370507 1.40647e-05 0
0.0361559 -0.000850601 0
0.0211423 -0.00341307 0
0.0366594 -0.00034992 0
0.0364123 -0.000598365 0
0.0361856 -0.000864082 0
0.0379417 0.000597315 0
0.036215 -0.000877714 0
0.0362581 -0.000898091 0
0.0379472 0.000519414 0
0.0374727 0.000163989 0
0.036301 -0.000918792 0
0.0355992 -0.00169067 0
0.0377221 0.000293668 0
0.0368278 -0.000449531 0
0.0363624 -0.000949385 0
0.0379556 0.00040984 0
0.0366588 -0.000731624 0
0.0364233 -0.000980647 0
0.0382199 0.000538699 0
0.0359751 -0.00150324 0
0.0373277 -0.00019176 0
0.0371489 -0.000362105 0
0.0379648 0.000298988 0
0.0382219 0.000481976 0
0.0365087 -0.00102634 0
0.037524 -0.000120913 0
0.0352075 -0.0024088 0
0.0382251 0.000401821 0
0.0370431 -0.000591596 0
0.0346562 -0.00283548 0
0.0365927 -0.00107335 0
0.0379787 0.000145099 0
0.0329256 -0.00365331 0
0.0382303 0.000288026 0
0.0363976 -0.00143434 0
0.0377786 -0.000130357 0
0.0367078 -0.00114134 0
0.0379936 -1.08243e-05 0
0.0364511 -0.00146344 0
0.0369756 -0.000931819 0
0.0375766 -0.000409535 0
0.0279234 -0.00423375 0
0.0358214 -0.00217118 0
0.0372446 -0.000741658 0
0.0382388 0.000126713 0
0.036529 -0.00150733 0
0.03682 -0.00121178 0
0.0380153 -0.000223885 0
0.0366399 -0.00157301 0
0.0384468 0.000149941 0
0.0339143 -0.00356321 0
0.0384478 0.000119252 0
0.036969 -0.00131252 0
0.0382525 -0.000100575 0
0.0384487 8.86473e-05 0
0.0384501 4.59801e-05 0
0.0348418 -0.00326273 0
0.0376454 -0.000789599 0
0.0384515 3.32364e-06 0
0.0374906 -0.000951688 0
0.0380382 -0.000439809 0
0.0367936 -0.00167068 0
0.0384537 -5.64637e-05 0
0.0371122 -0.00141756 0
0.0378605 -0.000708138 0
0.038456 -0.000116382 0
0.0373606 -0.00122989 0
0.0366073 -0.00202339 0
0.0366318 -0.00203878 0
0.0384593 -0.000200209 0
0.0382743 -0.000417675 0
0.036015 -0.00265718 0
0.0366562 -0.00205429 0
0.0366919 -0.00207737 0
0.0384629 -0.00028442 0
0.0380698 -0.000729515 0
0.0369997 -0.00181517 0
0.0367273 -0.00210071 0
0.0372958 -0.0015659 0
0.0377128 -0.00117339 0
0.0367782 -0.002135 0
0.0355361 -0.00320486 0
0.0384681 -0.00040142 0
0.0331563 -0.00419216 0
0.0368284 -0.00216982 0
0.0384736 -0.00051921 0
0.0368991 -0.00222035 0
0.0364233 -0.0026771 0
0.0117507 -0.00222628 0
0.0381022 -0.00102273 0
0.0350009 -0.00369563 0
0.0374682 -0.00172131 0
0.0386439 -0.000359614 0
0.0383072 -0.000854129 0
0.0369685 -0.00227193 0
0.0384816 -0.000681129 0
0.037265 -0.00202785 0
0.0386457 -0.000427185 0
0.0213174 -0.00371409 0
0.0370635 -0.00234589 0
0.0386482 -0.000519518 0
0.0379676 -0.00147721 0
0.03849 -0.000844414 0
0.0377949 -0.0016674 0
0.0386519 -0.00064713 0
0.0362116 -0.00324615 0
0.0371561 -0.00242184 0
0.0368235 -0.0027499 0
0.0381443 -0.0014082 0
0.0376793 -0.00193745 0
0.0368673 -0.00278259 0
0.0385018 -0.00106582 0
0.0386573 -0.000824094 0
0.0369309 -0.00283159 0
0.0372791 -0.00252948 0
0.0383534 -0.00144453 0
0.0375883 -0.00233886 0
0.0370215 -0.00290426 0
0.0351402 -0.00415151 0
0.0385139 -0.00128927 0
0.0373973 -0.00264073 0
0.0381852 -0.00179726 0
0.0386652 -0.00106883 0
0.0378706 -0.00216448 0
0.0333436 -0.00474141 0
0.0387567 -0.000895412 0
0.0371467 -0.00301108 0
0.0387575 -0.000932747 0
0.0387584 -0.000969927 0
0.0387595 -0.00101994 0
0.03853 -0.00158732 0
0.0342715 -0.00462935 0
0.035809 -0.00411675 0
0.0375488 -0.00279646 0
0.0387606 -0.00106984 0
0.0363703 -0.00383907 0
0.0386765 -0.0014048 0
0.0387621 -0.00113786 0
0.0373143 -0.00316692 0
0.0387636 -0.00120585 0
0.0369957 -0.0034793 0
0.0370155 -0.00349642 0
0.0370351 -0.00351363 0
0.038234 -0.00229753 0
0.0380902 -0.00247462 0
0.0387657 -0.00129895 0
0.0385458 -0.00188799 0
0.0376911 -0.00295832 0
0.0370639 -0.00353919 0
0.0370925 -0.00356496 0
0.0387678 -0.00139216 0
0.0352524 -0.0046111 0
0.0379538 -0.00278919 0
0.0384112 -0.0022265 0
0.0371334 -0.00360267 0
0.0387706 -0.00151953 0
0.0371739 -0.00364081 0
0.0386915 -0.00186083 0
0.0375295 -0.00339282 0
0.0372307 -0.00369589 0
0.0387734 -0.00164723 0
0.037865 -0.00318185 0
0.0367825 -0.00411962 0
0.0385654 -0.00228156 0
0.0372864 -0.00375183 0
0 0 0
0.0382774 -0.00280055 0
0.038777 -0.00182045 0
0.0373625 -0.00383155 0
0.0334783 -0.00529862 0
0.0387896 -0.00158725 0
0.0281899 -0.00517272 0
0.0387804 -0.00199434 0
0.0365133 -0.00454665 0
0.0374365 -0.00391292 0
0.0387911 -0.00167115 0
0.0380225 -0.0034152 0
0.0214122 -0.00404066 0
0.038583 -0.00267784 0
0.0387931 -0.00178115 0
0.035342 -0.00509744 0
0.0377909 -0.00371807 0
0.0387095 -0.00247056 0
0.0375347 -0.00402744 0
0.0387847 -0.00222759 0
0.0371472 -0.00435662 0
0.0387956 -0.00192812 0
0.037182 -0.00439252 0
0.0372326 -0.0044461 0
0.0376288 -0.00414497 0
0.0383221 -0.00343217 0
0.0387885 -0.00246192 0
0.0384707 -0.00323705 0
0.0387986 -0.00212639 0
0.0360022 -0.00516115 0
0.0373044 -0.0045251 0
0.0382023 -0.00373241 0
0.0386017 -0.00318573 0
0.0377489 -0.00430832 0
0.0388019 -0.00239444 0
0.0387925 -0.00277174 0
0.0374034 -0.00464032 0
0.0380843 -0.00418258 0
0.0354037 -0.00558595 0
0.0344691 -0.00572768 0
0.0366073 -0.00525569 0
0.038726 -0.00327054 0
0.0378613 -0.00447691 0
0.0335686 -0.00586362 0
0.0387208 -0.00231778 0
0.0375352 -0.00480677 0
0.0387952 -0.00308294 0
0.0387216 -0.00236505 0
0.0388049 -0.00275537 0
0.0383544 -0.00406439 0
0.0387223 -0.00241212 0
0.0386151 -0.00369545 0
0.0387231 -0.00247269 0
0.0387239 -0.00253306 0
0.0387248 -0.00261245 0
0.0372396 -0.00523247 0
0.0379978 -0.00470813 0
0.037255 -0.0052511 0
0.0372704 -0.0052698 0
0.0387257 -0.00269165 0
0.037293 -0.00529751 0
0.0377032 -0.00504523 0
0.0387966 -0.00348739 0
0.0373154 -0.00532539 0
0.0387267 -0.00279705 0
0.0373474 -0.0053661 0
0.0388062 -0.00323708 0
0.0387275 -0.00290232 0
0.037379 -0.00540716 0
0.0374232 -0.00546625 0
0.0354391 -0.00610535 0
0.0381204 -0.00494797 0
0.0387283 -0.00304294 0
0.0385087 -0.00450759 0
0.0386229 -0.00433385 0
0.0374665 -0.00552604 0
0.038795 -0.00389308 0
0.0387288 -0.00318351 0
0.0383749 -0.00483859 0
0.0369714 -0.00584191 0
0.0375254 -0.0056109 0
0.0387299 -0.00429667 0
0.0379052 -0.00538423 0
0.0387289 -0.0033708 0
0.0366609 -0.00608632 0
0.0375825 -0.00569711 0
0.033608 -0.00643366 0
0.0388021 -0.00387169 0
0.0214333 -0.00436062 0
0.0387284 -0.00355813 0
0.0382586 -0.00527212 0
0.0360834 -0.00635269 0
0.0376579 -0.00581781 0
0.0387884 -0.00441006 0
0.0385132 -0.00324449 0
0.0386195 -0.00497175 0
0.0387268 -0.00380579 0
0.0385146 -0.00335261 0
0.0377296 -0.00594101 0
0.0354455 -0.00662549 0
0.0385161 -0.00348782 0
0.0372765 -0.00625852 0
0.0373035 -0.00629709 0
0.038724 -0.00405355 0
0.0383729 -0.00560961 0
0.0381276 -0.0058622 0
0.0385174 -0.00366122 0
0.0373427 -0.00635447 0
0.0378206 -0.00611122 0
0.0387759 -0.00492725 0
0.0373979 -0.00643875 0
0.0345118 -0.00684959 0
0.0387857 -0.00469368 0
0.0385182 -0.00388725 0
0.0387186 -0.00437728 0
0.0379049 -0.00628584 0
0.0374737 -0.00656098 0
0.0282045 -0.0061553 0
0.0385985 -0.00575117 0
0.0366532 -0.00691448 0
0.0385175 -0.00418428 0
0.0386992 -0.00557905 0
0.0336041 -0.00700871 0
0.0387111 -0.00470102 0
0.0384843 -0.00605813 0
0.0375738 -0.00673631 0
0.0380061 -0.00652385 0
0.0354208 -0.00718066 0
0.0387513 -0.00557199 0
0.0385139 -0.00457487 0
0 0 0
0.0386983 -0.00511764 0
0.038339 -0.00652935 0
0.038189 -0.00422439 0
0.0376997 -0.00698526 0
0.0380952 -0.00676924 0
0.0381896 -0.00428622 0
0.0381902 -0.00434782 0
0.0117603 -0.00252137 0
0.0372382 -0.00727595 0
0.0381907 -0.00442327 0
0.038744 -0.00573656 0
0.03725 -0.00729576 0
0.0372618 -0.00731563 0
0.0381912 -0.00449846 0
0.0385578 -0.00652595 0
0.037279 -0.00734504 0
0.0385042 -0.00508577 0
0.0386817 -0.00553375 0
0.0381915 -0.0045931 0
0.0372961 -0.00737459 0
0.038716 -0.00621447 0
0.0373205 -0.00741766 0
0.0381916 -0.00468746 0
0.0373445 -0.00746102 0
0.0381928 -0.00709891 0
0.0381916 -0.00480849 0
0.037848 -0.0073355 0
0.0373779 -0.00752327 0
0.0360118 -0.00770088 0
0.0213684 -0.00471282 0
0.0381911 -0.00492922 0
0.0353655 -0.00773508 0
0.0374106 -0.00758608 0
0.0335525 -0.00758577 0
0.0381901 -0.00508574 0
0.0374548 -0.00767496 0
0.0386552 -0.00605968 0
0.0365766 -0.00786396 0
0.0368943 -0.00783502 0
0.0381885 -0.0052419 0
0.0374974 -0.00776492 0
0.0384831 -0.00574708 0
0.03827 -0.0074402 0
0.0381856 -0.00544502 0
0.0385975 -0.00713586 0
0.0375532 -0.0078904 0
0.0386574 -0.00699646 0
0.0344062 -0.00798792 0
0.0380056 -0.00782373 0
0.0384814 -0.00744823 0
0.0381817 -0.00564766 0
0.0376057 -0.00801791 0
0.0386222 -0.00658372 0
0.0386555 -0.00702785 0
0.0381754 -0.00591045 0
0.0376716 -0.00819324 0
0.0383387 -0.00789141 0
0.0352728 -0.0083281 0
0.0376656 -0.00544118 0
0.0384417 -0.00659053 0
0.0371069 -0.00843485 0
0.0381674 -0.00617252 0
0.0376669 -0.00558402 0
0.0371275 -0.00847535 0
0.0377316 -0.0083722 0
0.0371573 -0.0085355 0
0.0334598 -0.00816524 0
0.0376678 -0.00575409 0
0.0385718 -0.00723256 0
0.038581 -0.00777182 0
0.037199 -0.00862358 0
0.0381548 -0.0065096 0
0.0376679 -0.00596232 0
0.0378019 -0.00861481 0
0.0381433 -0.00849742 0
0.0372558 -0.00875082 0
0.0364272 -0.00880479 0
0.0383745 -0.00835969 0
0.0376665 -0.00622286 0
0.0381395 -0.00684548 0
0.0373299 -0.00893235 0
0.0378617 -0.00886356 0
0.038511 -0.00787679 0
0.0376623 -0.00655349 0
0.0351481 -0.00891852 0
0.0383658 -0.00764617 0
0.0381162 -0.00727219 0
0.0374215 -0.00918833 0
0.0212271 -0.00504208 0
0.0279646 -0.00716963 0
0.0384653 -0.00869168 0
0.0379238 -0.00919586 0
0.0357411 -0.00920627 0
0.037653 -0.00697575 0
0.0384875 -0.00858314 0
0.0383735 -0.00896747 0
0.0333238 -0.0087434 0
0.0380887 -0.00769672 0
0.0375259 -0.00954542 0
0.0384221 -0.00865646 0
0.0368866 -0.0095741 0
0.0370186 -0.00672439 0
0.0368956 -0.00959471 0
0.0369044 -0.00961536 0
0.0379682 -0.00953794 0
0.034159 -0.00913607 0
0.0370192 -0.00680659 0
0.0382089 -0.00941534 0
0.0369175 -0.00964591 0
0.0376347 -0.0075147 0
0.0369304 -0.00967656 0
0.0370196 -0.00688858 0
0.0369489 -0.00972118 0
0.0370198 -0.00698408 0
0.036967 -0.00976602 0
0.0380479 -0.00822758 0
0.0370197 -0.00707934 0
0.0369922 -0.00983029 0
0.0370194 -0.00719356 0
0.0370166 -0.00989502 0
0.0349783 -0.00954984 0
0.0370187 -0.00730748 0
0.0361804 -0.00985694 0
0.038323 -0.00959846 0
0.0370494 -0.00998638 0
0.0382342 -0.00893788 0
0.0370175 -0.00744736 0
0.0376302 -0.0100383 0
0.0370808 -0.0100786 0
0.037999 -0.00998769 0
0.037601 -0.00819802 0
0.0370157 -0.00758684 0
0.0380003 -0.00875446 0
0.038317 -0.00942699 0
0.036456 -0.0100623 0
0 0 0
0.0371215 -0.0102069 0
0.0370129 -0.00776101 0
0.0331493 -0.00932131 0
0.0371594 -0.0103367 0
0.0370093 -0.00793462 0
0.0370037 -0.00815353 0
0.0372059 -0.0105146 0
0.0380012 -0.010452 0
0.0379321 -0.00940104 0
0.0369969 -0.00837161 0
0.0375423 -0.00905412 0
0.0372473 -0.0106954 0
0.0377074 -0.0107113 0
0.0381957 -0.0104002 0
0.0347758 -0.0101759 0
0.0369867 -0.00864735 0
0.0381696 -0.0103367 0
0.0381214 -0.0106455 0
0.0209935 -0.00540775 0
0.037294 -0.0109393 0
0.0365405 -0.0108326 0
0.0369746 -0.00892181 0
0.0365566 -0.0108742 0
0.0378537 -0.0100406 0
0.0365796 -0.0109359 0
0.0361229 -0.00827685 0
0.0379641 -0.0110515 0
0.0380171 -0.0104778 0
0.0366117 -0.011026 0
0.0373316 -0.0111882 0
0.0369567 -0.00926767 0
0.036124 -0.00846658 0
0.0358534 -0.0108907 0
0.0329371 -0.00989432 0
0.0366548 -0.0111559 0
0.0361242 -0.00868212 0
0.0337762 -0.0102872 0
0.0374439 -0.0101092 0
0.0352243 -0.0108555 0
0.0369359 -0.00961149 0
0.0367104 -0.0113403 0
0.0373667 -0.011519 0
0.0361229 -0.00893365 0
0.0379991 -0.0112307 0
0.0377102 -0.0116183 0
0.0377444 -0.0108089 0
0.0361192 -0.00923432 0
0.0367776 -0.011599 0
0.0345193 -0.010843 0
0.0378835 -0.0116709 0
0.0369057 -0.0100411 0