# vtk DataFile Version 3.0
File generated from DClib
ASCII

DATASET UNSTRUCTURED_GRID
POINTS 4280 float
50 0 0 
50 0.714286 0 
49.3 0.2 0 
48.75 0 0 
50 1.42857 0 
48.6 0.4 0 
49.3 1.61496 0 
48.6 1.10209 0 
50 2.14286 0 
47.9 0.6 0 
48.6 1.79662 0 
47.5 0 0 
47.3692 0.4 0 
48.6 2.48485 0 
50 2.85714 0 
47.9 1.97408 0 
47.2 0.8 0 
49.3 3.01496 0 
47.2 1.47897 0 
46.8155 0.2 0 
48.6 3.16805 0 
47.2 2.14787 0 
50 3.57143 0 
46.5 1 0 
46.25 0 0 
46.1442 0.4 0 
47.9 3.31694 0 
47.2 2.80837 0 
46.0139 0.8 0 
48.6 3.84746 0 
46.5 2.31851 0 
50 4.28571 0 
45.8 1.2 0 
47.2 3.46216 0 
49.3 4.40598 0 
45.4847 0.6 0 
45.8 1.84767 0 
48.6 4.52436 0 
45.8 2.48653 0 
47.2 4.1109 0 
50 5 0 
45 0 0 
46.5 3.60423 0 
44.9248 0.4 0 
47.9 4.64106 0 
45.1 1.4 0 
44.8356 0.8 0 
45.8 3.11804 0 
48.6 5.2 0 
44.6778 1.2 0 
47.2 4.75629 0 
45.1 2.65245 0 
45.8 3.74367 0 
44.3442 0.2 0 
50 5.71429 0 
44.4 1.6 0 
49.3 5.79402 0 
44.1953 1 0 
46.5 4.87026 0 
44.4 2.21092 0 
48.6 5.87564 0 
45.8 4.3649 0 
47.2 5.4 0 
43.75 0 0 
45.1 3.88102 0 
44.4 2.81679 0 
43.7108 0.4 0 
47.9 5.95894 0 
43.6648 0.8 0 
50 6.42857 0 
45.8 4.98318 0 
43.5624 1.2 0 
43.7 1.8 0 
44.4 3.41847 0 
47.2 6.04371 0 
48.6 6.55254 0 
43.3544 1.6 0 
44.4 4.01679 0 
43.0972 0.6 0 
43.7 2.98009 0 
45.8 5.6 0 
46.5 6.12974 0 
45.1 5.09527 0 
50 7.14286 0 
42.9354 1.4 0 
49.3 7.18504 0 
47.2 6.6891 0 
44.4 4.61259 0 
43 2 0 
48.6 7.23195 0 
43 2.57143 0 
42.5 0 0 
45.8 6.21682 0 
42.5017 0.4 0 
42.501 0.8 0 
43.7 4.15152 0 
47.9 7.28306 0 
42.4536 1.2 0 
44.4 5.20672 0 
43 3.14286 0 
42.3128 1.6 0 
47.2 7.33784 0 
50 7.85714 0 
43 3.71429 0 
45.1 6.30473 0 
42.3 2.2 0 
45.8 6.8351 0 
48.6 7.91515 0 
44.4 5.8 0 
41.8847 0.2 0 
41.9198 1 0 
46.5 7.39577 0 
43 4.28571 0 
42.0375 2 0 
43.7 5.31775 0 
42.3 3.30563 0 
47.2 7.99163 0 
44.4 6.39328 0 
41.6932 1.8 0 
43 4.85714 0 
45.8 7.45633 0 
50 8.57143 0 
49.3 8.58504 0 
41.3439 0.8 0 
41.2972 0.4 0 
48.6 8.60338 0 
41.3509 1.2 0 
41.6 2.4 0 
41.25 0 0 
43 5.42857 0 
41.2749 1.6 0 
47.9 8.62592 0 
42.3 4.41991 0 
41.6 2.93194 0 
44.4 6.98741 0 
45.1 7.51898 0 
43.7 6.48225 0 
41.6 3.46892 0 
47.2 8.65213 0 
45.8 8.08196 0 
41.075 2 0 
43 6 0 
40.7343 0.6 0 
50 9.28571 0 
41.6 4.0101 0 
40.792 1.4 0 
46.5 8.68149 0 
48.6 9.29791 0 
44.4 7.58321 0 
40.9 2.6 0 
42.3 5.53939 0 
41.6 4.55464 0 
40.7206 2.4 0 
43 6.57143 0 
45.8 8.71347 0 
47.2 9.32103 0 
40.4568 2.2 0 
40.9 3.63327 0 
40.254 1.2 0 
41.6 5.10169 0 
40.1929 0.8 0 
40.2405 1.6 0 
43.7 7.64848 0 
40.0971 0.4 0 
44.4 8.18153 0 
50 10 0 
40 0 0 
43 7.14286 0 
49.3 10 0 
45.1 8.74755 0 
40.1125 2 0 
48.6 10 0 
41.6 5.65043 0 
42.3 6.66061 0 
40.2 2.8 0 
47.9 10 0 
40.9 4.69041 0 
45.8 9.35233 0 
40.2 3.29518 0 
39.6701 1 0 
47.2 10 0 
44.4 8.78321 0 
43 7.71429 0 
41.6 6.2 0 
39.8372 2.4 0 
39.694 1.8 0 
40.2 3.79918 0 
39.4356 0.2 0 
46.5 10 0 
40.2 4.31053 0 
40.9 5.76188 0 
41.6 6.74957 0 
43.7 8.81991 0 
45.8 10 0 
43 8.28571 0 
39.1626 1.2 0 
39.2094 1.6 0 
39.5 3 0 
40.2 4.82776 0 
44.4 9.38908 0 
42.3 7.78009 0 
39.3972 2.8 0 
39.0478 0.8 0 
39.15 2 0 
39.2146 2.6 0 
38.901 0.4 0 
41.6 7.29831 0 
45.1 10 0 
40.2 5.34939 0 
39.5 3.9672 0 
38.75 0 0 
43 8.85714 0 
38.9501 2.4 0 
40.9 6.83812 0 
38.6674 1.4 0 
40.2 5.87396 0 
44.4 10 0 
41.6 7.84536 0 
38.606 2.2 0 
39.5 4.9672 0 
38.3929 0.6 0 
38.8 3.2 0 
40.2 6.4 0 
43 9.42857 0 
38.5876 2.8 0 
42.3 8.89437 0 
38.8 3.66388 0 
43.7 10 0 
41.6 8.3899 0 
38.1815 1.6 0 
38.8 4.13784 0 
38.1875 2 0 
38.0762 1.2 0 
40.2 6.92604 0 
40.9 7.90959 0 
39.5 5.98688 0 
38.8 4.6202 0 
37.908 0.8 0 
38.0595 2.4 0 
43 10 0 
41.6 8.93108 0 
37.7087 0.4 0 
38.8 5.10927 0 
40.2 7.45061 0 
38.0611 3.2 0 
38.1 3.4 0 
37.9547 3 0 
37.7017 1.8 0 
37.5 0 0 
38.8 5.60338 0 
37.7714 2.8 0 
37.443 1 0 
42.3 10 0 
39.5 7.01312 0 
40.2 7.97224 0 
38.1 4.31163 0 
41.6 9.46806 0 
38.8 6.10085 0 
37.508 2.6 0 
40.9 8.96673 0 
37.225 2 0 
37.1564 1.6 0 
40.2 8.48947 0 
38.8 6.6 0 
36.9953 0.2 0 
38.1 5.25449 0 
37.1656 2.4 0 
41.6 10 0 
36.9945 1.2 0 
37.3144 3.2 0 
37.4 3.6 0 
39.5 8.0328 0 
37.4 4.04077 0 
36.7732 0.8 0 
38.8 7.09915 0 
40.2 9.00082 0 
36.9491 2.8 0 
37.4 4.4891 0 
38.1 6.21608 0 
36.7483 2.2 0 
36.5198 0.4 0 
36.5593 1.4 0 
40.9 10 0 
38.8 7.59662 0 
37.4 4.94372 0 
40.2 9.50482 0 
37.4 5.40338 0 
36.25 0 0 
36.6653 3.4 0 
36.7058 3.6 0 
36.5602 3.2 0 
38.8 8.09073 0 
36.7 3.8 0 
39.5 9.0328 0 
36.2625 2 0 
37.4 5.86682 0 
38.1 7.18392 0 
36.2685 2.4 0 
36.0701 0.6 0 
36.3802 3 0 
36.134 1.6 0 
40.2 10 0 
36.7 4.67076 0 
37.4 6.33278 0 
38.8 8.5798 0 
35.9172 1.2 0 
36.121 2.8 0 
37.4 6.8 0 
35.643 0.8 0 
35.7154 1.8 0 
38.8 9.06216 0 
36.7 5.55647 0 
38.1 8.14551 0 
36.0058 3.6 0 
35.7826 2.6 0 
39.5 10 0 
37.4 7.26722 0 
35.799 3.2 0 
36 4 0 
35.3339 0.4 0 
36 4.42857 0 
38.8 9.53612 0 
36.7 6.45116 0 
37.4 7.73318 0 
35.2354 1 0 
36 4.85714 0 
35.3686 2.4 0 
35.3 2 0 
36 5.28571 0 
35.1141 1.6 0 
38.1 9.08837 0 
35.2874 2.8 0 
35 0 0 
38.8 10 0 
37.4 8.19662 0 
36 5.71429 0 
35.3002 3.6 0 
35.3345 3.8 0 
35.2028 3.4 0 
36.7 7.34884 0 
34.8439 1.2 0 
35.325 4 0 
35.4 4.4 0 
34.8846 2.2 0 
37.4 8.65628 0 
36 6.14286 0 
35.0311 3.2 0 
34.5624 0.2 0 
36 6.57143 0 
34.5169 0.8 0 
35.4 5.22519 0 
34.7799 3 0 
38.1 10 0 
37.4 9.1109 0 
34.4653 1.4 0 
36.7 8.24353 0 
36 7 0 
34.466 2.4 0 
34.3375 2 0 
35.4 6.02519 0 
34.4488 2.8 0 
37.4 9.55923 0 
34.5892 3.6 0 
36 7.42857 0 
34.1509 0.4 0 
34.65 4 0 
34.8 4.8 0 
34.0965 1.6 0 
36 7.85714 0 
34.8 5.19326 0 
34.2571 3.2 0 
37.4 10 0 
35.4 6.81008 0 
36.7 9.12924 0 
34.0407 2.6 0 
34.8 5.57644 0 
33.7626 0.6 0 
33.75 0 0 
36 8.28571 0 
33.7742 1.2 0 
34.8 5.95123 0 
33.7341 1.8 0 
35.4 7.58992 0 
34.8 6.3193 0 
33.9558 3.8 0 
36 8.71429 0 
33.975 4 0 
34.0731 4.4 0 
33.8733 3.6 0 
34.1583 4.8 0 
34.8 6.68233 0 
33.5609 2.4 0 
33.3945 0.8 0 
33.6055 2.8 0 
34.2 5.2 0 
33.7157 3.4 0 
36.7 10 0 
36 9.14286 0 
33.375 2 0 
34.8 7.04201 0 
33.4772 3.2 0 
35.4 8.37481 0 
34.2 5.9151 0 
34.8 7.4 0 
36 9.57143 0 
33.0439 1 0 
33.081 1.6 0 
32.9704 0.4 0 
34.8 7.75799 0 
33.157 3 0 
34.2 6.60082 0 
33.0159 2.2 0 
33.5208 4.8 0 
33.3 4 0 
36 10 0 
33.1528 3.6 0 
34.8 8.11767 0 
35.4 9.17481 0 
33.6 5.6 0 
32.7077 1.2 0 
34.2 7.2689 0 
34.8 8.4807 0 
33.6 5.9252 0 
32.7578 2.8 0 
32.5 0 0 
32.6535 2.4 0 
33.6 6.24536 0 
34.8 8.84877 0 
32.692 3.2 0 
33.6 6.56133 0 
32.3831 1.4 0 
34.2 7.9311 0 
35.4 10 0 
32.4125 2 0 
32.2755 0.8 0 
32.8871 4.8 0 
34.8 9.22356 0 
33.6 6.87394 0 
32.9869 5.2 0 
32.7578 4.4 0 
32.625 4 0 
32.5653 3.8 0 
32.1354 0.2 0 
33.0317 5.6 0 
33.6 7.18402 0 
32.2847 2.6 0 
32.4279 3.6 0 
34.8 9.60674 0 
34.2 8.59918 0 
32.0673 1.6 0 
33 6 0 
33.6 7.49243 0 
32.2071 3.4 0 
33.6 7.8 0 
34.8 10 0 
31.792 0.4 0 
33 6.57143 0 
33.6 8.10757 0 
31.9061 2.8 0 
34.2 9.2849 0 
31.7572 1.8 0 
31.9018 3.2 0 
32.2571 4.8 0 
31.6442 1.2 0 
32.4654 5.6 0 
31.744 2.4 0 
33.6 8.41598 0 
33 7.14286 0 
31.95 4 0 
31.4674 0.6 0 
33.6 8.72606 0 
31.699 3.6 0 
31.45 2 0 
33 7.71429 0 
34.2 10 0 
33.6 9.03867 0 
31.5146 3 0 
32.4 6.4 0 
31.25 0 0 
32.4 6.64623 0 
31.1593 0.8 0 
33.6 9.35464 0 
32.4 6.89749 0 
33 8.28571 0 
31.7874 5.2 0 
31.901 5.6 0 
31.1428 2.2 0 
31.6305 4.8 0 
32.4 7.15296 0 
31.0552 1.6 0 
31.95 6 0 
33.6 9.6748 0 
31.4529 4.4 0 
32.4 7.41178 0 
31.275 4 0 
31.0508 2.8 0 
30.8653 1 0 
31.107 3.2 0 
33 8.85714 0 
31.9183 6.4 0 
32.4 7.67312 0 
33.6 10 0 
31.1644 3.8 0 
32.4 7.93614 0 
30.8327 2.4 0 
30.9663 3.6 0 
30.6155 0.4 0 
32.4 8.2 0 
31.8 6.8 0 
33 9.42857 0 
30.5831 1.2 0 
31.3385 5.6 0 
32.4 8.46386 0 
31.8 7.22776 0 
31.0072 4.8 0 
30.4875 2 0 
30.6799 3.4 0 
31.4346 6.4 0 
32.4 8.72688 0 
30.5169 2.6 0 
33 10 0 
30.3104 1.4 0 
31.8 7.6849 0 
32.4 8.98822 0 
30.6 4 0 
32.4 9.24704 0 
31.8 8.15967 0 
30.3081 3.2 0 
30.0456 0.8 0 
30 0 0 
32.4 9.50251 0 
30.1923 2.8 0 
30.0447 1.6 0 
30.9 6 0 
30.7778 5.6 0 
30.6 5.2 0 
30.2303 3.6 0 
30.949 6.4 0 
32.4 9.75377 0 
31.2 7.2 0 
31.8 8.64033 0 
30.3869 4.8 0 
31.2 7.37817 0 
29.9198 2.4 0 
32.4 10 0 
30.9131 6.8 0 
31.2 7.56641 0 
29.7128 0.2 0 
29.7836 1.8 0 
30.1571 4.4 0 
31.2 7.76306 0 
31.8 9.1151 0 
29.8561 3 0 
31.2 7.96641 0 
29.925 4 0 
31.2 8.17481 0 
29.5243 1.2 0 
30.7917 7.2 0 
30.2186 5.6 0 
30.4615 6.4 0 
29.4405 0.4 0 
31.8 9.57224 0 
29.525 2 0 
31.2 8.38657 0 
29.7547 3.8 0 
31.2 8.6 0 
29.5055 3.2 0 
31.2 8.81343 0 
31.8 10 0 
29.7694 4.8 0 
29.4911 3.6 0 
29.1815 0.6 0 
30.6 7.6 0 
29.2664 2.2 0 
31.2 9.02519 0 
29.3308 2.8 0 
30.3792 7.2 0 
31.2 9.23359 0 
30.6 7.91767 0 
29.85 6 0 
29.9722 6.4 0 
29.0353 1.6 0 
31.2 9.43694 0 
28.934 0.8 0 
30.6 8.26052 0 
29.6609 5.6 0 
30.0126 6.8 0 
31.2 9.63359 0 
29.0053 2.4 0 
29.25 4 0 
29.1374 3.4 0 
31.2 9.82183 0 
29.4232 5.2 0 
30.6 8.6185 0 
28.75 0 0 
29.9629 7.2 0 
31.2 10 0 
28.6965 1 0 
30.6 8.9815 0 
29.1545 4.8 0 
28.7396 2.6 0 
29.4814 6.4 0 
28.5625 2 0 
30.6 9.33948 0 
28.6995 3.2 0 
30 8 0 
28.7491 3.6 0 
29.8269 7.6 0 
28.4673 1.2 0 
28.869 4.4 0 
30 8.14286 0 
29.1047 5.6 0 
30 8.28571 0 
30.6 9.68233 0 
29.5429 7.2 0 
30 8.42857 0 
28.4669 2.8 0 
28.2668 0.4 0 
30 8.57143 0 
28.575 4 0 
28.2447 1.4 0 
30 8.71429 0 
30.6 10 0 
30 8.85714 0 
29.625 8 0 
30 9 0 
28.9891 6.4 0 
29.1 6.8 0 
28.542 4.8 0 
30 9.14286 0 
29.6296 8.28571 0 
28.3376 3.8 0 
28.1847 3 0 
28.027 1.6 0 
28.8 6 0 
28.0897 2.4 0 
30 9.28571 0 
29.1195 7.2 0 
29.6404 8.57143 0 
30 9.42857 0 
28.5498 5.6 0 
30 9.57143 0 
29.6547 8.85714 0 
27.8241 0.8 0 
30 9.71429 0 
29.25 8 0 
27.8127 1.8 0 
29.2534 8.14286 0 
28.0046 3.6 0 
29.6703 9.14286 0 
29.0422 7.6 0 
30 9.85714 0 
29.2602 8.28571 0 
27.8907 3.2 0 
28.2555 5.2 0 
30 10 0 
29.2698 8.42857 0 
29.6846 9.42857 0 
29.9644 10.0356 0 
29.2816 8.57143 0 
28.4953 6.4 0 
29.9288 10.0712 0 
27.9 4 0 
29.2952 8.71429 0 
27.6 2 0 
28.6928 7.2 0 
27.5 0 0 
29.3098 8.85714 0 
29.6954 9.71429 0 
29.8831 10.1169 0 
29.325 9 0 
27.6007 2.8 0 
29.8373 10.1627 0 
27.9316 4.8 0 
28.875 8 0 
29.3402 9.14286 0 
27.4117 1.2 0 
29.7 10 0 
29.3548 9.28571 0 
29.7792 10.2208 0 
27.5826 3.4 0 
28.8917 8.28571 0 
29.3684 9.42857 0 
[...]
POINT_DATA 4280
SCALARS phi float 1
LOOKUP_TABLE default
-4.59808
-4.59808
-4.59808
-4.59808
-4.59808
-4.59808
-4.59808
-4.59808
-4.59808
-4.59808
-4.59808
-4.59808
-4.59808
-4.59808
-4.59808
-4.59808
-4.59808
-4.59808
-4.59808
-4.59808
-4.59808
-4.59808
-4.59808
-4.59808
-4.59808
-4.59808
-4.59808
-4.59808
-4.59808
-4.59808
-4.59808
-4.59808
-4.59808
-4.59808
-4.59808
-4.59808
-4.59808
-4.59808
-4.59808
-4.59808
-4.59808
-4.59808
-4.59808
-4.59808
-4.59808
-4.59808
-4.59808
-4.59808
-4.59808
-4.59808
-4.59808
-4.59808
-4.59808
-4.59808
-4.59808
-4.59808
-4.59808
-4.59808
-4.59808
-4.59808
-4.59808
-4.59808
-4.59808
-4.59808
-4.59808
-4.59808
-4.59808
-4.59808
-4.59808
-4.59808
-4.59808
-4.59808
-4.59808
-4.59808
-4.59808
-4.59808
-4.59808
-4.59808
-4.59808
-4.59808
-4.59808
-4.59808
-4.59808
-4.59808
-4.59808
-4.59808
-4.59808
-4.59808
-4.59808
-4.59808
-4.59808
-4.59808
-4.59808
-4.59808
-4.59808
-4.59808
-4.59808
-4.59808
-4.59808
-4.59808
-4.59808
-4.59808
-4.59808
-4.59808
-4.59808
-4.59808
-4.59808
-4.59808
-4.59808
-4.59808
-4.59808
-4.59808
-4.59808
-4.59808
-4.59808
-4.59808
-4.59808
-4.59808
-4.59808
-4.59808
-4.59808
-4.59808
-4.59808
-4.59808
-4.59808
-4.59808
-4.59808
-4.59808
-4.59808
-4.59808
-4.59808
-4.59808
-4.59808
-4.59808
-4.59808
-4.59808
-4.59808
-4.59808
-4.59808
-4.59808
-4.59808
-4.59808
-4.59808
-4.59808
-4.59808
-4.59808
-4.59808
-4.59808
-4.59808
-4.59808
-4.59808
-4.59808
-4.59808
-4.59808
-4.59808
-4.59808
-4.59808
-4.59808
-4.59808
-4.59808
-4.59808
-4.59808
-4.59808
-4.59808
-4.59808
-4.59808
-4.59808
-4.59808
-4.59808
-4.59808
-4.59808
-4.59808
-4.59808
-4.59808
-4.59808
-4.59808
-4.59808
-4.59808
-4.59808
-4.59808
-4.59808
-4.59808
-4.59808
-4.59808
-4.59808
-4.59808
-4.59808
-4.59808
-4.59808
-4.59808
-4.59808
-4.59808
-4.59808
-4.59808
-4.59808
-4.59808
-4.59808
-4.59808
-4.59808
-4.59808
-4.59808
-4.59808
-4.59808
-4.59808
-4.59808
-4.59808
-4.59808
-4.59808
-4.59808
-4.59808
-4.59808
-4.59808
-4.59808
-4.59808
-4.59808
-4.59808
-4.59808
-4.59808
-4.59808
-4.59808
-4.59808
-4.59808
-4.59808
-4.59808
-4.59808
-4.59808
-4.59808
-4.59808
-4.59808
-4.59808
-4.59808
-4.59808
-4.59808
-4.59808
-4.59808
-4.59808
-4.59808
-4.59808
-4.59808
-4.59808
-4.59808
-4.59808
-4.59808
-4.59808
-4.59808
-4.59808
-4.59808
-4.59808
-4.59808
-4.59808
-4.59808
-4.59808
-4.59808
-4.59808
-4.59808
-4.59808
-4.59808
-4.59808
-4.59808
-4.59808
-4.59808
-4.59808
-4.59808
-4.59808
-4.59808
-4.59808
-4.59808
-4.59808
-4.59808
-4.59808
-4.59808
-4.59808
-4.59808
-4.59808
-4.59808
-4.59808
-4.59808
-4.59808
-4.59808
-4.59808
-4.59808
-4.59808
-4.59808
-4.59808
-4.59808
-4.59808
-4.59808
-4.59808
-4.59808
-4.59808
-4.59808
-4.59808
-4.59808
-4.59808
-4.59808
-4.59808
-4.59808
-4.59808
-4.59808
-4.59808
-4.59808
-4.59808
-4.59808
-4.59808
-4.59808
-4.59808
-4.59808
-4.59808
-4.59808
-4.59808
-4.59808
-4.59808
-4.59808
-4.59808
-4.59808
-4.59808
-4.59808
-4.59808
-4.59808
-4.59808
-4.59808
-4.59808
-4.59808
-4.59808
-4.59808
-4.59808
-4.59808
-4.59808
-4.59808
-4.59808
-4.59808
-4.59808
-4.59808
-4.59808
-4.59808
-4.59808
-4.59808
-4.59808
-4.59808
-4.59808
-4.59808
-4.59808
-4.59808
-4.59808
-4.59808
-4.59808
-4.59808
-4.59808
-4.59808
-4.59808
-4.59808
-4.59808
-4.59808
-4.59808
-4.59808
-4.59808
-4.59808
-4.59808
-4.59808
-4.59808
-4.59808
-4.59808
-4.59808
-4.59808
-4.59808
-4.59808
-4.59808
-4.59808
-4.59808
-4.59808
-4.59808
-4.59808
-4.59808
-4.59808
-4.59808
-4.59808
-4.59808
-4.59808
-4.59808
-4.59808
-4.59808
-4.59808
-4.59808
-4.59808
-4.59808
-4.59808
-4.59808
-4.59808
-4.59808
-4.59808
-4.59808
-4.59808
-4.59808
-4.59808
-4.59808
-4.59808
-4.59808
-4.59808
-4.59808
-4.59808
-4.59808
-4.59808
-4.59808
-4.59808
-4.59808
-4.59808
-4.59808
-4.59808
-4.59808
-4.59808
-4.59808
-4.59808
-4.59808
-4.59808
-4.59808
-4.59808
-4.59808
-4.59808
-4.59808
-4.59808
-4.59808
-4.59808
-4.59808
-4.59808
-4.59808
-4.59808
-4.59808
-4.59808
-4.59808
-4.59808
-4.59808
-4.59808
-4.59808
-4.59808
-4.59808
-4.59808
-4.59808
-4.59808
-4.59808
-4.59808
-4.59808
-4.59808
-4.59808
-4.59808
-4.59808
-4.59808
-4.59808
-4.59808
-4.59808
-4.59808
-4.59808
-4.59808
-4.59808
-4.59808
-4.59808
-4.59808
-4.59808
-4.59808
-4.59808
-4.59808
-4.59808
-4.59808
-4.59808
-4.59808
-4.59808
-4.59808
-4.59808
-4.59808
-4.59808
-4.59808
-4.59808
-4.59808
-4.59808
-4.59808
-4.59808
-4.59808
-4.59808
-4.59808
-4.59808
-4.59808
-4.59808
-4.59808
-4.59808
-4.59808
-4.59808
-4.59808
-4.59808
-4.59808
-4.59808
-4.59808
-4.59808
-4.59808
-4.59808
-4.59808
-4.59808
-4.59808
-4.59808
-4.59808
-4.59808
-4.59808
-4.59808
-4.59808
-4.59808
-4.59808
-4.59808
-4.59808
-4.59808
-4.59808
-4.59808
-4.59808
-4.59808
-4.59808
-4.59808
-4.59808
-4.59808
-4.59808
-4.59808
-4.59808
-4.59808
-4.59808
-4.59808
-4.59808
-4.59808
-4.59808
-4.59808
-4.59808
-4.59808
-4.59808
-4.59808
-4.59808
-4.59808
-4.59808
-4.59808
-4.59808
-4.59808
-4.59808
-4.59808
-4.59808
-4.59808
-4.59808
-4.59808
-4.59808
-4.59808
-4.59808
-4.59808
-4.59808
-4.59808
-4.59808
-4.59808
-4.59808
-4.59808
-4.59808
-4.59808
-4.59808
-4.59808
-4.59808
-4.59808
-4.59808
-4.59808
-4.59808
-4.59808
-4.59808
-4.59808
-4.59808
-4.59808
-4.59808
-4.59808
-4.59808
-4.59808
-4.59808
-4.59808
-4.59808
-4.59808
-4.59808
-4.59808
-4.59808
-4.59808
-4.59808
-4.59808
-4.59808
-4.59808
-4.59808
-4.59808
-4.59808
-4.59808
-4.59808
-4.59808
-4.59808
-4.59808
-4.59808
-4.59808
-4.59808
-4.59808
-4.59808
-4.59808
-4.59808
-4.59808
-4.59808
-4.59808
-4.59808
-4.59808
-4.59808
-4.59808
-4.59808
-4.59808
-4.59808
-4.59808
-4.59808
-4.59808
-4.59808
-4.59808
-4.59808
-4.59808
-4.59808
-4.59808
-4.59808
-4.59808
-4.59808
-4.59808
-4.59808
-4.59808
-4.59808
-4.59808
-4.59808
-4.59808
-4.59808
-4.59808
-4.59808
-4.59808
-4.59808
-4.59808
-4.59808
-4.59808
-4.59808
-4.59808
-4.59808
-4.59808
-4.59808
-4.59808
-4.59808
-4.59808
-4.59808
-4.59808
-4.59808
-4.59808
-4.59808
-4.59808
-4.59808
-4.59808
-4.59808
-4.59808
-4.59808
-4.59808
-4.59808
-4.59808
-4.59808
-4.59808
-4.59808
-4.59808
-4.59808
-4.59808
-4.59808
-4.59808
-4.59808
-4.59808
-4.59808
-4.59808
-4.59808
-4.59808
-4.59808
-4.59808
-4.59808
-4.59808
-4.59808
-4.59808
-4.59808
-4.59808
-4.59808
-4.59808
-4.59808
-4.59808
-4.59808
-4.59808
-4.59808
-4.59808
-4.59808
-4.59808
-4.59808
-4.59808
-4.59808
-4.59808
-4.59808
-4.59808
-4.59808
-4.59808
-4.59808
-4.59808
-4.59808
-4.59808
-4.59808
-4.59808
-4.59808
-4.59808
-4.59808
-4.59808
-4.59808
-4.59808
-4.59808
-4.59808
-4.59808
-4.59808
-4.59808
-4.59808
-4.59808
-4.59808
-4.59808
-4.59808
-4.59808
-4.59808
-4.59808
-4.59808
-4.59808
-4.59808
-4.59808
-4.59808
-4.59808
-4.59808
-4.59808
-4.59808
-4.59808
-4.59808
-4.59808
-4.59808
-4.59808
-4.59808
-4.59808
-4.59808
-4.59808
-4.59808
-4.59808
-4.59808
-4.59808
-4.59808
-4.59808
-4.59808
-4.59808
-4.59808
-4.59808
-4.59808
-4.59808
-4.59808
-4.59808
-4.59808
-4.59808
-4.59808
-4.59808
-4.59808
-4.59808
-4.59808
-4.59808
-4.59808
-4.59808
-4.59808
-4.59808
-4.59808
-4.59808
-4.59808
-4.59808
-4.59808
-4.59808
-4.59808
-4.59808
-4.59808
-4.59808
-4.59808
-4.59808
-4.59808
-4.59808
-4.59808
-4.59808
-4.59808
-4.59808
-4.59808
-4.59808
-4.59808
-4.59808
-4.59808
-4.59808
-4.59808
-4.59808
-4.59808
-4.59808
-4.59808
-4.59808
-4.59808
-4.59808
-4.59808
-4.59808
-4.59808
-4.59808
-4.59808
-4.59808
-4.59808
-4.59808
-4.59808
-4.59808
-4.59808
-4.59808
-4.59808
-4.59808
-4.59808
-4.59808
-4.59808
-4.59808
-4.59808
-4.59808
-4.59808
-4.59808
-4.59808
-4.59808
-4.59808
-4.59808
-4.59808
-4.59808
-4.59808
-4.59808
-4.59808
-4.59808
-4.59808
-4.59808
-4.59808
-4.59808
-4.59808
-4.59808
-4.59808
-4.59808
-4.59808
-4.59808
-4.59808
-4.59808
-4.59808
-4.59808
-4.59808
-4.59808
-4.59808
-4.59808
-4.59808
-4.59808
-4.59808
-4.59808
-4.59808
-4.59808
-4.59808
-4.59808
-4.59808
-4.59808
-4.59808
-4.59808
-4.59808
-4.59808
-4.59808
-4.59808
-4.59808
-4.59808
-4.59808
-4.59808
-4.59808
-4.59808
-4.59808
-4.59808
-4.59808
-4.59808
-4.59808
-4.59808
-4.59808
-4.59808
-4.59808
-4.59808
-4.59808
-4.59808
-4.59808
-4.59808
-4.59808
-4.59808
-4.59808
-4.59808
-4.59808
-4.59808
-4.59808
-4.59808
-4.59808
-4.59808
-4.59808
-4.59808
-4.59808
-4.59808
-4.59808
-4.59808
-4.59808
-4.59808
-4.59808
-4.59808
-4.59808
-4.59808
-4.59808
-4.59808
-4.59808
-4.59808
-4.59808
-4.59808
-4.59808
-4.59808
-4.59808
-4.59808
-4.59808
-4.59808
-4.59808
-4.59808
-4.59808
-4.59808
-4.59808
-4.59808
-4.59808
-4.59808
-4.59808
-4.59808
-4.59808
-4.59808
-4.59808
-4.59808
-4.59808
-4.59808
-4.59808
-4.59808
-4.59808
-4.59808
-4.59808
-4.59808
-4.59808
-4.59808
-4.59808
-4.59808
-4.59808
-4.59808
-4.59808
-4.59808
-4.59808
-4.59808
-4.59808
-4.59808
-4.59808
-4.59808
-4.59808
-4.59808
-4.59808
-4.59808
-4.59808
-4.59808
-4.59808
-4.59808
-4.59808
-4.59808
-4.59808
-4.59808
-4.59808
-4.59808
-4.59808
-4.59808
-4.59808
-4.59808
-4.59808
-4.59808
-4.59808
-4.59808
-4.59808
-4.59808
-4.59808
-4.59808
-4.59808
-4.59808
-4.59808
-4.59808
-4.59808
-4.59808
-4.59808
-4.59808
-4.59808
-4.59808
-4.59808
-4.59808
-4.59808
-4.59808
-4.59808
-4.59808
-4.59808
-4.59808
-4.59808
-4.59808
-4.59808
-4.59808
-4.59808
-4.59808
-4.59808
-4.59808
-4.59808
-4.59808
-4.59808
-4.59808
-4.59808
-4.59808
-4.59808
-4.59808
-4.59808
-4.59808
-4.59808
-4.59808
-4.59808
-4.59808
-4.59808
-4.59808
-4.59808
-4.59808
-4.59808
-4.59808
-4.59808
-4.59808
-4.59808
-4.59808
-4.59808
-4.59808
-4.59808
-4.59808
-4.59808
-4.59808
-4.59808
-4.59808
-4.59808
-4.59808
-4.59808
-4.59808
-4.59808
-4.59808
-4.59808
-4.59808
-4.59808
-4.59808
-4.59808
-4.59808
-4.59808
-4.59808
-4.59808
-4.59808
-4.59808
-4.59808
-4.59808
-4.59808
-4.59808
-4.59808
-4.59808
-4.59808
-4.59808
-4.59808
-4.59808
-4.59808
-4.59808
-4.59808
-4.59808
-4.59808
-4.59808
-4.59808
-4.59808
-4.59808
-4.59808
-4.59808
-4.59808
-4.59808
-4.59808
-4.59808
-4.59808
-4.59808
-4.59808
-4.59808
-4.59808
-4.59808
-4.59808
-4.59808
-4.59808
-4.59808
-4.59808
-4.59808
-4.59808
-4.59808
-4.59808
-4.59808
-4.59808
-4.59808
-4.59808
-4.59808
-4.59808
-4.59808
-4.59808
-4.59808
-4.59808
-4.59808
-4.59808
-4.59808
-4.59808
-4.59808
-4.59808
-4.59808
-4.59808
-4.59808
-4.59808
-4.59808
-4.59808
-4.59808
-4.59808
-4.59808
-4.59808
-4.59808
-4.59808
-4.59808
-4.59808
-4.59808
-4.59808
-4.59808
-4.59808
-4.59808
-4.59808
-4.59808
-4.59808
-4.59808
-4.59808
-4.59808
-4.59808
-4.59808
-4.59808
-4.59808
-4.59808
-4.59808
-4.59808
-4.59808
-4.59808
-4.59808
-4.59808
-4.59808
-4.59808
-4.59808
-4.59808
-4.59808
-4.59808
-4.59808
-4.59808
-4.59808
-4.59808
-4.59808
-4.59808
-4.59808
-4.59808
-4.59808
-4.59808
-4.59808
-4.59808
-4.59808
-4.59808
-4.59808
-4.59808
-4.59808
-4.59808
-4.59808
-4.59808
-4.59808
-4.59808
-4.59808
-4.59808
-4.59808
-4.59808
-4.59808
-4.59808
-4.59808
-4.59808
-4.59808
-4.59808
-4.59808
-4.59808
-4.59808
-4.59808
-4.59808
-4.59808
-4.59808
-4.59808
-4.59808
-4.59808
-4.59808
-4.59808
-4.59808
-4.59808
-4.59808
-4.59808
-4.59808
-4.59808
-4.59808
-4.59808
-4.59808
-4.59808
-4.59808
-4.59808
-4.59808
-4.59808
-4.59808
-4.59808
-4.59808
-4.59808
-4.59808
-4.59808
-4.59808
-4.59808
-4.59808
-4.59808
-4.59808
-4.59808
-4.59808
-4.59808
-4.59808
-4.59808
-4.59808
-4.59808
-4.59808
-4.59808
-4.59808
-4.59808
-4.59808
-4.59808
-4.59808
-4.59808
-4.59808
-4.59808
-4.59808
-4.59808
-4.59808
-4.59808
-4.59808
-4.59808
-4.59808
-4.59808
-4.59808
-4.59808
-4.59808
-4.59808
-4.59808
-4.59808
-4.59808
-4.59808
-4.59808
-4.59808
-4.59808
-4.59808
-4.59808
-4.59808
-4.59808
-4.59808
-4.59808
-4.59808
-4.59808
-4.59808
-4.59808
-4.59808
-4.59808
-4.59808
-4.59808
-4.59808
-4.59808
-4.59808
-4.59808
-4.59808
-4.59808
-4.59808
-4.59808
-4.59808
-4.59808
-4.59808
-4.59808
-4.59808
-4.59808
-4.59808
-4.59808
-4.59808
-4.59808
-4.59808
-4.59808
-4.59808
-4.59808
-4.59808
-4.59808
-4.59808
-4.59808
-4.59808
-4.59808
-4.59808
-4.59808
-4.59808
-4.59808
-4.59808
-4.59808
-4.59808
-4.59808
-4.59808
-4.59808
-4.59808
-4.59808
-4.59808
-4.59808
-4.59808
-4.59808
-4.59808
-4.59808
-4.59808
-4.59808
-4.59808
-4.59808
-4.59808
-4.59808
-4.59808
-4.59808
-4.59808
-4.59808
-4.59808
-4.59808
-4.59808
-4.59808
-4.59808
-4.59808
-4.59808
-4.59808
-4.59808
-4.59808
-4.59808
-4.59808
-4.59808
-4.59808
-4.59808
-4.59808
-4.59808
-4.59808
-4.59808
-4.59808
-4.59808
-4.59808
-4.59808
-4.59808
-4.59808
-4.59808
-4.59808
-4.59808
-4.59808
-4.59808
-4.59808
-4.59808
-4.59808
-4.59808
-4.59808
-4.59808
-4.59808
-4.59808
-4.59808
-4.59808
-4.59808
-4.59808
-4.59808
-4.59808
-4.59808
-4.59808
-4.59808
-4.59808
-4.59808
-4.59808
-4.59808
-4.59808
-4.59808
-4.59808
-4.59808
-4.59808
-4.59808
-4.59808
-4.59808
-4.59808
-4.59808
-4.59808
-4.59808
-4.59808
-4.59808
-4.59808
-4.59808
-4.59808
-4.59808
-4.59808
-4.59808
-4.59808
-4.59808
-4.59808
-4.59808
-4.59808
-4.59808
-4.59808
-4.59808
-4.59808
-4.59808
-4.59808
-4.59808
-4.59808
-4.59808
-4.59808
-4.59808
-4.59808
-4.59808
-4.59808
-4.59808
-4.59808
-4.59808
-4.59808
-4.59808
-4.59808
-4.59808
-4.59808
-4.59808
-4.59808
-4.59808
-4.59808
-4.59808
-4.59808
-4.59808
-4.59808
-4.59808
-4.59808
-4.59808
-4.59808
-4.59808
-4.59808
-4.59808
-4.59808
-4.59808
-4.59808
-4.59808
-4.59808
-4.59808
-4.59808
-4.59808
-4.59808
-4.59808
-4.59808
-4.59808
-4.59808
-4.59808
-4.59808
-4.59808
-4.59808
-4.59808
-4.59808
-4.59808
-4.59808
-4.59808
-4.59808
-4.59808
-4.59808
-4.59808
-4.59808
-4.59808
-4.59808
-4.59808
-4.59808
-4.59808
-4.59808
-4.59808
-4.59808
-4.59808
-4.59808
-4.59808
-4.59808
-4.59808
-4.59808
-4.59808
-4.59808
-4.59808
-4.59808
-4.59808
-4.59808
-4.59808
-4.59808
-4.59808
-4.59808
-4.59808
-4.59808
-4.59808
-4.59808
-4.59808
-4.59808
-4.59808
-4.59808
-4.59808
-4.59808
-4.59808
-4.59808
-4.59808
-4.59808
-4.59808
-4.59808
-4.59808
-4.59808
-4.59808
-4.59808
-4.59808
-4.59808
-4.59808
-4.59808
-4.59808
-4.59808
-4.59808
-4.59808
-4.59808
-4.59808
-4.59808
-4.59808
-4.59808
-4.59808
-4.59808
-4.59808
-4.59808
-4.59808
-4.59808
-4.59808
-4.59808
-4.59808
-4.59808
-4.59808
-4.59808
-4.59808
-4.59808
-4.59808
-4.59808
-4.59808
-4.59808
-4.59808
-4.59808
-4.59808
-4.59808
-4.59808
-4.59808
-4.59808
-4.59808
-4.59808
-4.59808
-4.59808
-4.59808
-4.59808
-4.59808
-4.59808
-4.59808
-4.59808
-4.59808
-4.59808
-4.59808
-4.59808
-4.59808
-4.59808
-4.59808
-4.59808
-4.59808
-4.59808
-4.59808
-4.59808
-4.59808
-4.59808
-4.59808
-4.59808
-4.59808
-4.59808
-4.59808
-4.59808
-4.59808
-4.59808
-4.59808
-4.59808
-4.59808
-4.59808
-4.59808
-4.59808
-4.59808
-4.59808
-4.59808
-4.59808
-4.59808
-4.59808
-4.59808
-4.59808
-4.59808
-4.59808
-4.59808
-4.59808
-4.59808
-4.59808
-4.59808
-4.59808
-4.59808
-4.59808
-4.59808
-4.59808
-4.59808
-4.59808
-4.59808
-4.59808
-4.59808
-4.59808
-4.59808
-4.59808
-4.59808
-4.59808
-4.59808
-4.59808
-4.59808
-4.59808
-4.59808
-4.59808
-4.59808
-4.59808
-4.59808
-4.59808
-4.59808
-4.59808
-4.59808
-4.59808
-4.59808
-4.59808
-4.59808
-4.59808
-4.59808
-4.59808
-4.59808
-4.59808
-4.59808
-4.59808
-4.59808
-4.59808
-4.59808
-4.59808
-4.59808
-4.59808
-4.59808
-4.59808
-4.59808
-4.59808
-4.59808
-4.59808
-4.59808
-4.59808
-4.59808
-4.59808
-4.59808
-4.59808
-4.59808
-4.59808
-4.59808
-4.59808
-4.59808
-4.59808
-4.59808
-4.59808
-4.59808
-4.59808
-4.59808
-4.59808
-4.59808
-4.59808
-4.59808
-4.59808
-4.59808
-4.59808
-4.59808
-4.59808
-4.59808
-4.59808
-4.59808
-4.59808
-4.59808
-4.59808
-4.59808
-4.59808
-4.59808
-4.59808
-4.59808
-4.59808
-4.59808
-4.59808
-4.59808
-4.59808
-4.59808
-4.59808
-4.59808
-4.59808
-4.59808
-4.59808
-4.59808
-4.59808
-4.59808
-4.59808
-4.59808
-4.59808
-4.59808
-4.59808
-4.59808
-4.59808
-4.59808
-4.59808
-4.59808
-4.59808
-4.59808
-4.59808
-4.59808
-4.59808
-4.59808
-4.59808
-4.59808
-4.59808
-4.59808
-4.59808
-4.59808
-4.59808
-4.59808
-4.59808
-4.59808
-4.59808
-4.59808
-4.59808
-4.59808
-4.59808
-4.59808
-4.59808
-4.59808
-4.59808
-4.59808
-4.59808
-4.59808
-4.59808
-4.59808
-4.59808
-4.59808
-4.59808
-4.59808
-4.59808
-4.59808
-4.59808
-4.59808
-4.59808
-4.59808
-4.59808
-4.59808
-4.59808
-4.59808
-4.59808
-4.59808
-4.59808
-4.59808
-4.59808
-4.59808
-4.59808
-4.59808
-4.59808
-4.59808
-4.59808
-4.59808
-4.59808
-4.59808
-4.59808
-4.59808
-4.59808
-4.59808
-4.59808
-4.59808
-4.59808
-4.59808
-4.59808
-4.59808
-4.59808
-4.59808
-4.59808
-4.59808
-4.59808
-4.59808
-4.59808
-4.59808
-4.59808
-4.59808
-4.59808
-4.59808
-4.59808
-4.59808
-4.59808
-4.59808
-4.59808
-4.59808
-4.59808
-4.59808
-4.59808
-4.59808
-4.59808
-4.59808
-4.59808
-4.59808
-4.59808
-4.59808
-4.59808
-4.59808
-4.59808
-4.59808
-4.59808
-4.59808
-4.59808
-4.59808
-4.59808
-4.59808
-4.59808
-4.59808
-4.59808
-4.59808
-4.59808
-4.59808
-4.59808
-4.59808
-4.59808
-4.59808
-4.59808
-4.59808
-4.59808
-4.59808
-4.59808
-4.59808
-4.59808
-4.59808
-4.59808
-4.59808
-4.59808
-4.59808
-4.59808
-4.59808
-4.59808
-4.59808
-4.59808
-4.59808
-4.59808
-4.59808
-4.59808
-4.59808
-4.59808
-4.59808
-4.59808
-4.59808
-4.59808
-4.59808
-4.59808
-4.59808
-4.59808
-4.59808
-4.59808
-4.59808
-4.59808
-4.59808
-4.59808
-4.59808
-4.59808
-4.59808
-4.59808
-4.59808
-4.59808
-4.59808
-4.59808
-4.59808
-4.59808
-4.59808
-4.59808
-4.59808
-4.59808
-4.59808
-4.59808
-4.59808
-4.59808
-4.59808
-4.59808
-4.59808
-4.59808
-4.59808
-4.59808
-4.59808
-4.59808
-4.59808
-4.59808
-4.59808
-4.59808
-4.59808
-4.59808
-4.59808
-4.59808
-4.59808
-4.59808
-4.59808
-4.59808
-4.59808
-4.59808
-4.59808
-4.59808
-4.59808
-4.59808
-4.59808
-4.59808
-4.59808
-4.59808
-4.59808
-4.59808
-4.59808
-4.59808
-4.59808
-4.59808
-4.59808
-4.59808
-4.59808
-4.59808
-4.59808
-4.59808
-4.59808
-4.59808
-4.59808
-4.59808
-4.59808
-4.59808
-4.59808
-4.59808
-4.59808
-4.59808
-4.59808
-4.59808
-4.59808
-4.59808
-4.59808
-4.59808
-4.59808
-4.59808
-4.59808
-4.59808
-4.59808
-4.59808
-4.59808
-4.59808
-4.59808
-4.59808
-4.59808
-4.59808
-4.59808
-4.59808
-4.59808
-4.59808
-4.59808
-4.59808
-4.59808
-4.59808
-4.59808
-4.59808
-4.59808
-4.59808
-4.59808
-4.59808
-4.59808
-4.59808
-4.59808
-4.59808
-4.59808
-4.59808
-4.59808
-4.59808
-4.59808
-4.59808
-4.59808
-4.59808
-4.59808
-4.59808
-4.59808
-4.59808
-4.59808
-4.59808
-4.59808
-4.59808
-4.59808
-4.59808
-4.59808
-4.59808
-4.59808
-4.59808
-4.59808
-4.59808
-4.59808
-4.59808
-4.59808
-4.59808
-4.59808
-4.59808
-4.59808
-4.59808
-4.59808
-4.59808
-4.59808
-4.59808
-4.59808
-4.59808
-4.59808
-4.59808
-4.59808
-4.59808
-4.59808
-4.59808
-4.59808
-4.59808
-4.59808
-4.59808
-4.59808
-4.59808
-4.59808
-4.59808
-4.59808
-4.59808
-4.59808
-4.59808
-4.59808
-4.59808
-4.59808
-4.59808
-4.59808
-4.59808
-4.59808
-4.59808
-4.59808
-4.59808
-4.59808
-4.59808
-4.59808
-4.59808
-4.59808
-4.59808
-4.59808
-4.59808
-4.59808
-4.59808
-4.59808
-4.59808
-4.59808
-4.59808
-4.59808
-4.59808
-4.59808
-4.59808
-4.59808
-4.59808
-4.59808
-4.59808
-4.59808
-4.59808
-4.59808
-4.59808
-4.59808
-4.59808
-4.59808
-4.59808
-4.59808
-4.59808
-4.59808
-4.59808
-4.59808
-4.59808
-4.59808
-4.59808
-4.59808
-4.59808
-4.59808
-4.59808
-4.59808
-4.59808
-4.59808
-4.59808
-4.59808
-4.59808
-4.59808
-4.59808
-4.59808
-4.59808
-4.59808
-4.59808
-4.59808
-4.59808
-4.59808
-4.59808
-4.59808
-4.59808
-4.59808
-4.59808
-4.59808
-4.59808
-4.59808
-4.59808
-4.59808
-4.59808
-4.59808
-4.59808
-4.59808
-4.59808
-4.59808
-4.59808
-4.59808
-4.59808
-4.59808
-4.59808
-4.59808
-4.59808
-4.59808
-4.59808
-4.59808
-4.59808
-4.59808
-4.59808
-4.59808
-4.59808
-4.59808
-4.59808
-4.59808
-4.59808
-4.59808
-4.59808
-4.59808
-4.59808
-4.59808
-4.59808
-4.59808
-4.59808
-4.59808
-4.59808
-4.59808
-4.59808
-4.59808
-4.59808
-4.59808
-4.59808
-4.59808
-4.59808
-4.59808
-4.59808
-4.59808
-4.59808
-4.59808
-4.59808
-4.59808
-4.59808
-4.59808
-4.59808
-4.59808
-4.59808
-4.59808
-4.59808
-4.59808
-4.59808
-4.59808
-4.59808
-4.59808
-4.59808
-4.59808
-4.59808
-4.59808
-4.59808
-4.59808
-4.59808
-4.59808
-4.59808
-4.59808
-4.59808
-4.59808
-4.59808
-4.59808
-4.59808
-4.59808
-4.59808
-4.59808
-4.59808
-4.59808
-4.59808
-4.59808
-4.59808
-4.59808
-4.59808
-4.59808
-4.59808
-4.59808
-4.59808
-4.59808
-4.59808
-4.59808
-4.59808
-4.59808
-4.59808
-4.59808
-4.59808
-4.59808
-4.59808
-4.59808
-4.59808
-4.59808
-4.59808
-4.59808
-4.59808
-4.59808
-4.59808
-4.59808