# vtk DataFile Version 3.0
File generated from DClib
ASCII

DATASET UNSTRUCTURED_GRID
POINTS 1909 float
50 0 0 
48.75 0 0 
50 1.66667 0 
47.5 0 0 
50 3.33333 0 
46.25 0 0 
50 5 0 
45 0 0 
43.75 0 0 
50 6.66667 0 
43 2 0 
42.5 0 0 
50 8.33333 0 
43 4.66667 0 
41.25 0 0 
41.075 2 0 
50 10 0 
40 0 0 
43 7.33333 0 
39.15 2 0 
38.75 0 0 
43 10 0 
37.5 0 0 
37.225 2 0 
36.25 0 0 
36 4 0 
35.3 2 0 
36 5 0 
35 0 0 
35.325 4 0 
36 6 0 
36 7 0 
34.65 4 0 
36 8 0 
33.75 0 0 
33.975 4 0 
36 9 0 
33.375 2 0 
33.3 4 0 
36 10 0 
32.5 0 0 
32.625 4 0 
33 6 0 
31.95 4 0 
33 7.45455 0 
31.45 2 0 
31.25 0 0 
31.95 6 0 
33 8.79545 0 
31.275 4 0 
33 10 0 
30.6 4 0 
30 0 0 
30.9 6 0 
29.925 4 0 
29.525 2 0 
29.85 6 0 
29.25 4 0 
28.75 0 0 
30 8 0 
30 8.45455 0 
28.575 4 0 
29.625 8 0 
30 8.90909 0 
28.8 6 0 
30 9.25 0 
29.782 8.90909 0 
30 9.59091 0 
29.9487 9.59091 0 
29.25 8 0 
29.7462 9.25 0 
30 9.79545 0 
29.897 9.59091 0 
29.564 8.90909 0 
29.9547 9.79545 0 
29.3462 8.45455 0 
29.84 9.59091 0 
30 10 0 
29.8975 9.79545 0 
29.9882 10 0 
29.9902 10.0098 0 
29.7827 9.59091 0 
29.9765 10 0 
29.9804 10.0196 0 
29.9667 10.0098 0 
29.9591 10 0 
29.9686 10.0196 0 
29.9659 10.0341 0 
29.9569 10.0196 0 
29.9418 10 0 
29.9395 10.0196 0 
29.9515 10.0485 0 
29.932 10.0098 0 
29.9424 10.0341 0 
29.8241 9.79545 0 
29.7181 9.59091 0 
29.9166 10 0 
29.9397 10.0485 0 
29.9222 10.0196 0 
29.9279 10.0485 0 
29.9305 10.0695 0 
29.8914 10 0 
29.9077 10.0341 0 
27.9 4 0 
29.897 10.0196 0 
29.9106 10.0485 0 
29.8817 10.0098 0 
29.907 10.0695 0 
29.8933 10.0485 0 
29.9095 10.0905 0 
29.8719 10.0196 0 
27.6 2 0 
29.8556 10 0 
29.8978 10.0905 0 
29.6531 9.59091 0 
29.3437 8.90909 0 
27.5 0 0 
29.8681 10.0485 0 
29.886 10.0905 0 
29.8574 10.0341 0 
29.4839 9.25 0 
29.8723 10.0695 0 
29.7289 9.79545 0 
29.836 10.0196 0 
29.8687 10.0905 0 
29.8197 10 0 
29.8797 10.1203 0 
29.843 10.0485 0 
29.8513 10.0905 0 
29.81 10.0098 0 
29.8561 10.1203 0 
29.8002 10.0196 0 
29.8221 10.0695 0 
29.8072 10.0485 0 
29.8262 10.0905 0 
29.5782 9.59091 0 
29.8498 10.1502 0 
29.7695 10 0 
29.7858 10.0341 0 
29.838 10.1502 0 
29.8215 10.1203 0 
29.8011 10.0905 0 
29.8262 10.1502 0 
29.7714 10.0485 0 
28.875 8 0 
29.75 10.0196 0 
29.8089 10.1502 0 
29.7654 10.0905 0 
29.7193 10 0 
29.7916 10.1502 0 
29.7505 10.0695 0 
29.8079 10.1921 0 
29.7713 10.1203 0 
29.7096 10.0098 0 
29.6047 9.79545 0 
29.503 9.59091 0 
29.7213 10.0485 0 
29.7665 10.1502 0 
29.6999 10.0196 0 
29.7844 10.1921 0 
29.7296 10.0905 0 
29.6856 10.0341 0 
29.7414 10.1502 0 
29.7497 10.1921 0 
29.6503 10 0 
29.7661 10.2339 0 
29.6712 10.0485 0 
29.6999 10.1203 0 
29.7543 10.2339 0 
29.6796 10.0905 0 
29.7057 10.1502 0 
29.7425 10.2339 0 
29.1235 8.90909 0 
29.6309 10.0196 0 
29.6504 10.0695 0 
29.4146 9.59091 0 
29.7252 10.2339 0 
29.6996 10.1921 0 
29.6701 10.1502 0 
29.7079 10.2339 0 
29.6296 10.0905 0 
29.5813 10 0 
29.6023 10.0485 0 
29.5716 10.0098 0 
29.6828 10.2339 0 
29.7086 10.2914 0 
29.2101 9.25 0 
29.562 10.0196 0 
29.6201 10.1502 0 
29.6578 10.2339 0 
29.4428 9.79545 0 
29.5999 10.1203 0 
29.6849 10.2914 0 
29.6283 10.1921 0 
29.5477 10.0341 0 
29.3259 9.59091 0 
29.5608 10.0905 0 
29.5335 10.0485 0 
29.6221 10.2339 0 
29.6503 10.2914 0 
29.5702 10.1502 0 
29.4881 10 0 
29.5128 10.0695 0 
29.6511 10.3489 0 
29.5866 10.2339 0 
29.6392 10.3489 0 
29.4689 10.0196 0 
29.6002 10.2914 0 
29.6273 10.3489 0 
29.4921 10.0905 0 
29.61 10.3489 0 
29.5286 10.1921 0 
29.5016 10.1502 0 
29.5368 10.2339 0 
29.5926 10.3489 0 
29.4405 10.0485 0 
29.2199 9.59091 0 
29.4626 10.1203 0 
29.3949 10 0 
28.9 8.90909 0 
29.5676 10.3489 0 
29.5291 10.2914 0 
29.3853 10.0098 0 
28.6923 8.45455 0 
29.487 10.2339 0 
29.5426 10.3489 0 
29.3758 10.0196 0 
29.5734 10.4266 0 
29.4331 10.1502 0 
29.3993 10.0905 0 
28.5 8 0 
29.3617 10.0341 0 
29.5496 10.4266 0 
29.5071 10.3489 0 
29.2327 9.79545 0 
29.3475 10.0485 0 
29.1136 9.59091 0 
29.4187 10.2339 0 
29.5148 10.4266 0 
29.4716 10.3489 0 
29.3918 10.1921 0 
29.3271 10.0695 0 
29.4298 10.2914 0 
29.2714 10 0 
29.3406 10.1502 0 
28.9208 9.25 0 
29.3066 10.0905 0 
29.4648 10.4266 0 
29.422 10.3489 0 
29.4958 10.5042 0 
29.2524 10.0196 0 
27.75 6 0 
29.3504 10.2339 0 
29.4837 10.5042 0 
29.4718 10.5042 0 
29.2774 10.1203 0 
29.4543 10.5042 0 
29.3724 10.3489 0 
29.2244 10.0485 0 
29.4369 10.5042 0 
29.3938 10.4266 0 
28.9853 9.59091 0 
29.2481 10.1502 0 
28.6766 8.90909 0 
29.4119 10.5042 0 
29.2934 10.2914 0 
27.225 4 0 
29.148 10 0 
29.2582 10.2339 0 
29.1837 10.0905 0 
29.3869 10.5042 0 
29.1385 10.0098 0 
29.3044 10.3489 0 
29.1291 10.0196 0 
29.2072 10.1921 0 
29.3514 10.5042 0 
29.1152 10.0341 0 
29.3929 10.6071 0 
29.2949 10.4266 0 
29.1013 10.0485 0 
29.3686 10.6071 0 
29.316 10.5042 0 
29.2364 10.3489 0 
28.9623 9.79545 0 
29.1257 10.1502 0 
29.1662 10.2339 0 
29.0811 10.0695 0 
28.8566 9.59091 0 
29.3336 10.6071 0 
29.2666 10.5042 0 
29.0609 10.0905 0 
28.9875 10 0 
29.2835 10.6071 0 
29.1448 10.3489 0 
29.0321 10.1203 0 
29.2173 10.5042 0 
29.1098 10.2914 0 
28.125 8 0 
28.9688 10.0196 0 
29.1594 10.4266 0 
28.611 9.25 0 
29.29 10.71 0 
28.4486 8.90909 0 
29.0443 10.2339 0 
29.0033 10.1502 0 
29.2777 10.71 0 
28.9413 10.0485 0 
29.2128 10.6071 0 
29.2655 10.71 0 
29.1497 10.5042 0 
29.2478 10.71 0 
28.7003 9.59091 0 
29.0533 10.3489 0 
29.2303 10.71 0 
28.9629 10.1921 0 
28.9013 10.0905 0 
29.2051 10.71 0 
29.0822 10.5042 0 
29.1801 10.71 0 
28.827 10 0 
29.1144 10.6071 0 
28.8177 10.0098 0 
28.9225 10.2339 0 
28.8085 10.0196 0 
29.1447 10.71 0 
28.7949 10.0341 0 
28.8443 10.1502 0 
28.977 10.4266 0 
28.9322 10.3489 0 
29.1094 10.71 0 
28.7813 10.0485 0 
28.9912 10.5042 0 
29.1562 10.8438 0 
28.5436 9.59091 0 
28.7615 10.0695 0 
28.8669 10.2914 0 
29.1313 10.8438 0 
28.6184 9.79545 0 
29.0602 10.71 0 
28.2207 8.90909 0 
28.7418 10.0905 0 
28.0378 8.45455 0 
28.9798 10.6071 0 
29.0958 10.8438 0 
29.0112 10.71 0 
28.9005 10.5042 0 
28.7136 10.1203 0 
28.7644 10.2339 0 
28.8113 10.3489 0 
29.0454 10.8438 0 
28.6223 10 0 
28.6854 10.1502 0 
28.2746 9.25 0 
28.9441 10.71 0 
28.6042 10.0196 0 
27.75 8 0 
28.9747 10.8438 0 
28.6459 10.1921 0 
28.5773 10.0485 0 
29.0225 10.9775 0 
28.3532 9.59091 0 
28.7804 10.5042 0 
28.736 10.4266 0 
28.8772 10.71 0 
29.0097 10.9775 0 
28.9971 10.9775 0 
28.799 10.6071 0 
28.9791 10.9775 0 
28.5384 10.0905 0 
28.6064 10.2339 0 
28.6543 10.3489 0 
28.9611 10.9775 0 
28.8769 10.8438 0 
27.9867 8.90909 0 
26.25 0 0 
28.9358 10.9775 0 
28.7871 10.71 0 
28.9106 10.9775 0 
28.6607 10.5042 0 
28.4177 10 0 
26.55 4 0 
28.552 10.2914 0 
28.483 10.1502 0 
28.4087 10.0098 0 
28.8751 10.9775 0 
28.3998 10.0196 0 
28.3866 10.0341 0 
28.8399 10.9775 0 
28.6974 10.71 0 
28.3735 10.0485 0 
28.1625 9.59091 0 
28.7436 10.8438 0 
28.4976 10.3489 0 
28.3543 10.0695 0 
28.791 10.9775 0 
28.4052 10.2339 0 
28.3352 10.0905 0 
28.8519 11.1481 0 
28.1869 9.79545 0 
28.5607 10.6071 0 
28.5053 10.5042 0 
28.7423 10.9775 0 
28.8258 11.1481 0 
28.308 10.1203 0 
28.5787 10.71 0 
27.904 9.25 0 
28.7893 11.1481 0 
28.424 10.4266 0 
27.7528 8.90909 0 
28.2807 10.1502 0 
28.6758 10.9775 0 
27.375 8 0 
28.7383 11.1481 0 
28.1619 10 0 
28.5649 10.8438 0 
28.2425 10.1921 0 
28.6096 10.9775 0 
28.1444 10.0196 0 
28.298 10.3489 0 
28.4605 10.71 0 
26.7 6 0 
27.9315 9.59091 0 
28.3503 10.5042 0 
28.6676 11.1481 0 
28.1187 10.0485 0 
28.2042 10.2339 0 
28.5207 10.9775 0 
28.0813 10.0905 0 
28.6814 11.3186 0 
27.3818 8.45455 0 
28.6679 11.3186 0 
28.1516 10.2914 0 
28.5703 11.1481 0 
28.6544 11.3186 0 
28.6358 11.3186 0 
27.5109 8.90909 0 
28.3072 10.71 0 
28.6173 11.3186 0 
28.2524 10.6071 0 
28.4322 10.9775 0 
28.028 10.1502 0 
28.5915 11.3186 0 
28.0989 10.3489 0 
28.33 10.8438 0 
28.5658 11.3186 0 
28.153 10.5042 0 
27.9061 10 0 
27.8975 10.0098 0 
28.5303 11.3186 0 
28.4384 11.1481 0 
27.7002 9.59091 0 
27.889 10.0196 0 
27.8765 10.0341 0 
28.4949 11.3186 0 
28.3154 10.9775 0 
27.9532 10.2339 0 
27.8639 10.0485 0 
28.0276 10.4266 0 
28.1544 10.71 0 
27.8457 10.0695 0 
27.4909 9.25 0 
28.4463 11.3186 0 
27 8 0 
27.8275 10.0905 0 
28.3979 11.3186 0 
27.8015 10.1203 0 
27.6542 9.79545 0 
25.675 2 0 
28.1991 10.9775 0 
27.2691 8.90909 0 
27.9563 10.5042 0 
28.4682 11.5318 0 
28.2625 11.1481 0 
27.7755 10.1502 0 
28.3322 11.3186 0 
27.8502 10.3489 0 
28.4401 11.5318 0 
25.875 4 0 
27.7391 10.1921 0 
28.4019 11.5318 0 
28.0268 10.8438 0 
28.2668 11.3186 0 
27.9602 10.71 0 
28.3498 11.5318 0 
27.4223 9.59091 0 
27.7026 10.2339 0 
27.5927 10 0 
28.0486 10.9775 0 
27.8616 10.6071 0 
27.5762 10.0196 0 
28.1794 11.3186 0 
28.2786 11.5318 0 
27.5519 10.0485 0 
27.6524 10.2914 0 
28.0319 11.1481 0 
27.7108 10.5042 0 
27.5167 10.0905 0 
27.0169 8.90909 0 
28.0924 11.3186 0 
27.6021 10.3489 0 
27.8988 10.9775 0 
28.1818 11.5318 0 
27.7667 10.71 0 
26.625 8 0 
28.255 11.745 0 
27.4664 10.1502 0 
28.2402 11.745 0 
28.2256 11.745 0 
28.2059 11.745 0 
27.978 11.3186 0 
26.7234 8.45455 0 
27.0259 9.25 0 
27.5342 10.4266 0 
28.1863 11.745 0 
27.1442 9.59091 0 
28.0516 11.5318 0 
28.1598 11.745 0 
27.3959 10.2339 0 
28.1334 11.745 0 
27.2793 10 0 
27.2714 10.0098 0 
27.2635 10.0196 0 
27.7086 10.9775 0 
27.6431 10.8438 0 
28.0975 11.745 0 
27.8643 11.3186 0 
27.4661 10.5042 0 
27.2518 10.0341 0 
27.2401 10.0485 0 
28.0617 11.745 0 
26.7648 8.90909 0 
27.5255 10.71 0 
27.7353 11.1481 0 
27.2231 10.0695 0 
28.0133 11.745 0 
27.2061 10.0905 0 
27.8791 11.5318 0 
27.2986 10.3489 0 
27.1818 10.1203 0 
27.9651 11.745 0 
27.3758 10.6071 0 
27.0077 9.79545 0 
27.7174 11.3186 0 
27.1576 10.1502 0 
25 0 0 
27.5193 10.9775 0 
27.9003 11.745 0 
27.1236 10.1921 0 
26.25 8 0 
27.9939 12.0061 0 
25.65 6 0 
27.8359 11.745 0 
26.8136 9.59091 0 
27.0896 10.2339 0 
27.9626 12.0061 0 
27.2853 10.71 0 
25.2 4 0 
27.5713 11.3186 0 
27.9218 12.0061 0 
26.4998 8.90909 0 
27.167 10.5042 0 
27.6541 11.5318 0 
27.0427 10.2914 0 
27.7503 11.745 0 
26.9033 10 0 
27.8677 12.0061 0 
26.8882 10.0196 0 
26.8659 10.0485 0 
26.9958 10.3489 0 
27.2836 10.9775 0 
27.6652 11.745 0 
27.3609 11.1481 0 
27.7955 12.0061 0 
26.499 9.25 0 
[...]
POINT_DATA 1909
SCALARS phi float 1
LOOKUP_TABLE default
-3.21135e+06
-2.05737e+06
-468946
-1.31745e+06
-473178
-1.16708e+06
-445798
-690527
-552839
-452229
-3.74324e+06
-292827
-1.78204e+06
-440256
-189321
-1.76217e+06
-4.99188e+06
-74658.1
-374687
-1.26287e+06
-16641.3
-8.37069e+06
11004.4
-894065
24535
-4.47258e+06
-628026
-103729
13838.6
-3.21132e+06
-188782
-180827
-2.35146e+06
-192541
-560.188
-2.69558e+06
-2.88598e+06
-446809
-2.05598e+06
-1.18246e+07
-11985.6
-2.37293e+06
-104244
-1.83352e+06
-102420
-335624
-25684.8
-53507.8
-78104
-2.13559e+06
-3.83269e+06
-1.67052e+06
-18709.5
-54027.6
-1.96918e+06
-283896
-67289.8
-1.56376e+06
-11537.3
-1632.2
-358.771
-1.86874e+06
-28316.1
391.481
-85937.7
-1572.6
-60300.6
-37638.6
-11307.7
-34722.5
-39829.3
-100166
-11214.6
-67529.7
-9964.32
-130565
-10997.8
-178446
-12161.3
24.4887
-253467
-12604.5
-1124
-25101.1
-342547
-823.289
-51726.9
-25223.4
-636.662
-9342.48
9349.41
-33635.5
-159518
-44952
-14686
-12429.1
-7756.61
-20075.2
2990.54
-6562.02
-27077.8
-29845.8
9996.76
-1.50965e+06
4015.61
-12033.1
-74311.4
-22208.3
-6441.58
-27109.9
-4339.59
-289263
-25127.9
-33646
-15364.6
-67011.8
-395.121
-3043.78
-27142.5
1495.06
-42309.2
-40559.2
-18636.2
-67.0318
-30043.1
-52600.9
-42251.2
7202.68
-14705.9
-27803.4
-41639.7
-1360.19
-15799.3
6363.24
-24544.6
-15275.8
-43696
-45215.4
-6558.68
-52092.4
-35837.2
-15651.7
-38414.2
1413.33
-45339.8
112.504
-49190.1
-20049.6
-63812.1
-39619.5
5453.35
-68954.3
-48464.5
-10160.8
-24419.6
-19699.8
1869.51
-48780.9
26.7003
-67068.3
-4186.37
-2252.4
-29424.6
-67339.2
-56966.2
-66506.5
-1513.3
-38391.9
-83524.3
-3279.56
-45689.6
-66488.3
-68980.6
-70.8379
1758.14
-19517
-81119.8
-60272.6
-26309.6
-61301.2
3439.15
-66590.1
104.252
-3862.33
-75961.6
-112629
-47323.2
-29.1145
-39879
-56794.4
-33316.8
-5205.48
-109359
-60797.7
-143.163
-25942.5
1326.77
-138.403
-66842.9
-101653
-16837.2
-61717.9
-33.1612
-106009
-40157.6
-128565
-61.0923
-90035.9
-99379.2
213.557
-118743
-51623.2
-14963.4
-59778.5
-89324.2
47.8242
-25694.7
2125.6
-72462.1
-68898.2
-102524
-70798.3
-1091.27
-137001
-31513.5
-72546.3
10.5318
-158179
819.479
230.394
-53504.2
13.9498
-145428
-81860.4
-47250.6
18.7709
-35116.2
-50972.2
-126940
-56672.2
-14040.9
46.7575
-60542.6
-69719.5
-1609.03
-53700.5
62.8008
-103333
-63480.6
-131112
-11.4562
-104965
-24762.6
-154061
-116656
255.338
-133496
-36691.5
13.3225
-97669.7
-80978.9
-34589.5
435.688
-72183.8
-108905
-58356.4
-1.82819e+06
-90676.4
-22752.3
-103.64
-77366.6
-69.2297
-64759.5
7.46135
-181.641
-84144
18.8126
-165563
-63532.4
0.316776
-147947
-58413.3
-38011.6
-69016.4
-462.672
-2360.53
-78.1473
-47919
-126735
-65818
-152.794
-88136.1
-104740
-64188.3
-410.026
-49044.1
-20988.3
-59951.4
-45.5841
-65814.3
-61230.6
-118117
-71257.5
-4791.26
-424.832
-137881
-38.0754
-86319.7
-104868
-61801.7
-120904
-46700.6
-34945.6
-90982.2
-912.191
-223.459
-103888
-40501.5
-77742.3
-122884
-77411
-46.061
-688.098
-56.1884
-89479.5
-92.6865
-751.772
-77839.4
-31971.3
-68132
-92.5849
-93578
-149219
-64704.9
-217.923
-3971.78
-139717
-98903.3
-79709.2
-74460.7
-232.425
-137302
-77522.5
-128978
-62100.6
-67787.7
-631.449
-1918.09
-6042.67
-118380
-116023
-715.622
-70026.4
-76663.7
-159.18
-65535.3
-109404
-1620.91
-212.14
-111403
-62423.8
-101388
-31160.3
-64502.5
-135778
-108372
-109974
-132097
-405.229
-1700.47
-7885.24
-105536
-103132
-72664
-11031.7
-128388
-96199.2
-102404
-54516.5
-171286
-1.5016e+06
-3387.69
-915.167
-233.057
-124046
-217.83
-328.064
-98226.6
-73160
-306.66
-85895
-103457
-3172.56
-502.91
-118258
-2054.26
-464.172
-161024
-136372
-142790
-45210.3
-92746.7
-159147
-892.488
-196903
-80283.9
-155557
-8999.96
-75917.4
-868.485
-108759
-69130.7
-149737
-163176
-116058
-1801.43
-83840.4
-230.26
-4263.64
-177104
-122443
-82636.3
-11029.2
-141084
-376.524
-1832.16
-99538
-642.925
-136536
-133716
-168243
-3698.83
-129275
-135383
-165677
-73194.7
-222432
-132259
-58232.7
-83244.7
-1167.75
-159934
-3774.65
-224821
-125955
-11726.1
-225954
-198.812
-150070
-115709
-113042
-196.824
-332.486
-116231
-139932
-2245.32
-329.82
-7049.27
-117515
-584.821
-92233.9
-136365
-73710.9
-582.468
-103778
-1068.07
-182893
-365054
-126038
-76606
-6940.31
-185866
-108766
-1070.86
-120697
-4310.16
-182943
-1.83484e+06
-1987.24
-177685
-320679
-91299.3
-82655.7
-169674
-108261
-1988.08
-220092
-398735
-17104.6
-168.711
-103374
-158694
-307.613
-3675.49
-129716
-7862.33
-577.511
-73036.4
-78688.1
-3636.24
-434740
-145136
-21356.1
-77507.3
-151497
-1102.17
-185376
-148319
-180785
-88010.3
-127314
-105884
-6706.49
-144052
-145339
-130327
-174443
-2099.61
-138078
-309485
-119.216
-117.169
-513456
-129547
-165765
-75556.8
-6603.64
-221.21
-218.172
-130098
-76733.8
-18551.2
-333490
-419.88
-154595
-415.324
-116778
-3914.76
-802.385
-120247
-11187.5
-239586
-126080
-795.656
-59487.1
-278388
-141516
-1525.57
-81097.5
-187794
-136010
-109252
-137719
-1517.81
-186594
-10942.5
-1.52402e+06
-120504
-183364
-72424.2
-7041.62
-110910
-2882.4
-128086
-297711
-177998
-82.3752
-181.313
-2880
-167053
-98564.3
-489708
-170793
-120826
-384.893
-29248.8
-445222
-5383.24
-162558
-114065
-794.134
-12103.5
-76431.2
-119031
-178625
-136216
-5351.92
-84781.3
-147606
-1598.59
-88866.1
-181639
-154359
-40371
-146354
-509118
-179551
-144309
-176611
-398138
-9670.72
-30.6735
-29.492
-141730
-90.1425
-3132.08
-100964
-87.6147
-173334
-222.115
-146885
-139190
-217.372
-500.203
-71458.2
-9592.89
-170489
-189916
-609674
-492.69
-90575.7
-137309
-31269.7
-295486
-1061.95
-393070
-5924.37
-168664
-167703
-1051.98
-87173.7
-139938
-1.86327e+06
-136330
-17414.1
-136373
-2154.33
-166509
-213754
-342912
-167240
-218838
-2143.75
-75704
-222885
-374292
-4.45177
-134861
-18352.1
-10873
-225269
-48.5186
-4200.01
-180213
-168.255
-109737
-136778
-225205
-163550
-4201.55
-448.161
-141844
-203541
-208682
-221814
-605750
-90391.2
-129252
-45225.1
-1048.23
-7934.18
-70178.5
-644538
-214185
-248320
-150482
-19848.9
-208320
-2260.69
-7995.29
-263490
-217980
-550814
-466159
-274575
-165339
5.59451
5.40123
-226146
-56682.7
6.2755
-202029
-114811
-283012
6.67228
-742861
-37.4325
-231471
-35.4431
-14473.7
-287023
-4602.54
-184.177
-151266
-1.54832e+06
-232423
-74600.1
-179.292
-91285.4
-284660
-547.266
-115492
-194548
-338644
-227462
-538.632
-185858
-14396
-273962
-225292
-1334.96
-802641
-100085
-8923.69
-44700
-215150
-1324.96
-93688
-458115
-254163
-2915.46
-26583.2
-68752.8
-268881
-166413
-431657
-195848
-272544
-15.705
-2912.91
8.53329
-93413.9
-274478
-151693
-410427
-8.42925
-227277
-274273
-5909.03
-16405.8
-132.258
-231570
-28118.7
-271486
-172382
-492.488
-5939.79
-117122
-265752
-73431.3
-153205
-198532
-1331.04
-1.88243e+06
-134402
-215403
-11303.3
-163810
-256474
-478256
-55309.1
-92406.2
-148967
-3074.27
-347844
-503412
-225924
-122.152
-123.302
-11422.1
-90412.4
-278947
-30149.3
-53.9095
-242935
-55.5209
-225611
1.66701
-278230
0.768958
-171689
-224791
3.07877
-276565
4.31491
-67449
-222968
-214223
-60882.6
-136.775
-168741
-273639
-6440.35
-132.011
-20386.8
-225184
-220127
-131691
-297811
-361933
-451571
-583.761
-269920
-92343.8
-575.132
-216980
-265551
-1632.82
-20398.1
-152865
-213061
-205261
-1623.74
-12527
-143806
-72288.3
-259869
-295484
-54055
-1.55008e+06
-3778.27
-461358
-207829
-205.926
-144920
-112.64
-278459
-35372.2
-388824
-24.0727
-3777.42
-252166
-287056
-242841
-88924.5
13.9063
-294626
-80681.8
-188462
-171502
-200891
-95.0474
-7794.02
-300634
-157212
-22627.5
-470892
-304411
-535.856
-66240.8
-36551
-241474
-7814.7
-109987
-305161
-191228
-1640.51
-922041
-533933
-302326
-85519.3
-14705.2
-199562
-227316
-111537
-506302
-458.033
-457.927
-327.103
-63503
-329.076
-3961.55
-308823
-181.824
-295581
-184.62
-46.5417
-221963
-70531.9
-250448
-14709.9
-48.4476
-1.89778e+06
-178660
-315972
-39560.5
18.8266
-261171
-813996
19.0995
-328881
-271354
-109.788
-284553
-340726
-360726
-106.961
-280355
-8345.64
-203305
-70482.4
-350629
-79440.3
-64129.5
-25563.3
-659.982
-287392
-442368
-656.853
-357775
-545859
-1.07324e+06
-291928
-268869
-163871
-2016.38
-361147
-64258.4
-25467
-292878
-2020.78
-170717
-15947.5
-359382
-457818
-595.74
-445.158
-237938
-160320
-4781.76
-101754
-267.237
-289056
-65853
-72406.9
-247920
-90.0626
-311452
-351306
-4804.38
17.9335
-338208
-43752.9
-1.56252e+06
-353520
-279659
-140788
-82.0323
-73900.3
-812835
-67022.9
-367281
-9838.12
-335990
-646.291
-378893
-28524.4
-58456.8
-225547
-105367
-387514
-264044
-9911.39
-44548.1
-64092.7
-615908
-2113.43
-392105
-311630
-472859
-999.865
-18479.4
-391458
-994.6
-809.25
-211303
-807.709
-583.847
-585.242
-239559
-336.007
-5172.99
-665353
-338.227
-60159.4
-103.409
-97416
-384303
-104.623
-67464.5
-215158
24.617
-18739.5
-279148
-295919
-54654
24.8799
-331211
-48253.3
-327747
-127.57
-419049
-2.012e+06
-347200
-369450
-128.143
-437646
-10827.9
-156941
-211201
-361324
-743075
-867.128
-453816
-31806.8
-373362
-876.167
-466852
-65993.1
-346183
-1.44224e+06
-45755.8
-382406
-60370.9
-233788
-2686.11
-475491
-44592.6
-387300
-537463
-2717.53
-209456
-409691
-478015
-31758.7
-407915
-1172.81
-1.57958e+06
-20314
-972.011
-386412
-718.896
-38918
-191901
-315188
-427.287
-6305.39
-472486
-144.464
-378259
24.0039
-71913
-102124
-6376.62
-457296
-328361
-123.225
-235502
-48950.1
-35596.2
-52491.2
-361802
-1.72197e+06
-427619
-278695
-12540.1
-447047
-933.964
-431406
-463984
-694895
-33874.9
-322118
-336437
-12581.3
-477356
-2951.89
-32868.8
-47302.7
-99674.7
-394834
-485863
-174112
-379853
-251278
-1713.25
-1705.44
-25902.9
-1470.09
-1466.03
-1171.2
-488141
-1170.66
-950878
-303187
-822.016
-21667.4
-823.103
-447.69
-49383.4
-448.559
-6932.64
-125935
-115.956
-482785
-115.955
-349258
33.6895
34.1366
-249482
-468670
-21484.4
-70258.1
-102533
-923385
-242.963
-263429
-50211.2
-2.40912e+06
-244.389
-199919
-18247.3
-237646
-444809
-13564.8
-433373
-1329.56
-548094
-13562.9
-297461
-2.67037e+06
-453817
-1334.82
-570220
-33898.9
-469097
-648508
-411001
-40339.1
-585732
-3757.03
-151285
-221692
-69787.5
-478878
-593770
-20444.1
-3754.56
-294104
-1857.97
-482067
-1606.4
-1283.92
-593324
-896.447
-10544.8
-368116
-23371.6
-32005.4
-478.588
-194930
-478164
-8043.88
-256703
-553050
-114.154
-583634
-466478
34.7136
-7822.36
-564324
-129243
-304.471
-73646.7
-313616
-447055
-96493.6
-2.19733e+06
-33708.9
-47251.2
-534660
-14727
-1538.9
-5436.76
-180633
-418646
-304758
-503997
-492985
-32868
-110298
-513915
-14358.7
-78732.9
-248722
-379929
-4171.18
-2.59118e+06
-341471
-520560
-46029.9
-222217
-251398
-2297.91
-440021
-2296.08
-2032.58
-2033.79
-1694.13
-1698.08
-1283.47
-523531
-9621.25
-1288.97
-90074.1
-820.448
-826.959
-332348
-22334.8
-362.457
-1309.87
-256.087
-368.537
-522115
-8582.3
-25.7642
-24458.5
-28.2374
-373576
-515409
-181510
-9.36778
-455149
-133903
-4.87072
-272170
-19854.8
-501952
-606.301
-3.24736e+06
-63565.3
-3.01207e+06
-582.97
-93784.8
-45367.7
-479562
-15090.7
-296312
-2176.36
-352926
270.22
-123241
-2094.77
-74652.1
-446392
-211059
-29112.7
-182214
-463517
-5044.35
-576251
-15801.6
-469373
-401468
-144532
-2416.77
-207035
-2123.52
-580329
-59216.9
-4817.64
-236554
-1746.45
-1288.72
-470246
-781.22
-578835
-20593.1
-302.16
-2261.31
-27073.8
-466979
-9267.69
-344403
-124.801
-127222
9.66497
-572424
-459920
-67.7449
-561797
-8591.15
-112561
-3.06973e+06
-449778
-210540
-108093
-830.78
-277466
-546574
-30178.8
-55794.1
-435218
-35686.7
-67460.8
-14013.6
-8924.63
-524117
-3093.55
-2623.28
-25374.8
-43420.4
-413365
-2216.85
-26550.1
-490428
-97791.5
-181908
-12246.1
-380814
-5629.17
-64005.6
-443136
-83784.4
-2509.06
-2519.51
-2164.65
-2174
-1724.53
-1734.23
-456813
-1203.34
-30926.7
-1214.12
-647.172
-337012
-656.837
-168.53
-107982
-176.761
-17587.1
-468644
41.1877
-383187
-29954.2
-54724.1
41.5593
-9506.89
-37758.2
-285.211
-6966.78
-474196
-284575
386.773
-253.74
-4.8553e+06
-45386.2
-51.4502
-2896.86
-1509.27
-429.944
-472848
-4.55838e+06
-2998.02
-313709
-1389.91
-14861.2
-7640.45
-14076.8
-465299
-4001.27
-222472
-38579.8
-63191.4
-22003.8
-3736.38
-27764
-13190.9
-45165.2
-450922
-53194.9
-30915.6
-20650.4
-208554
-3.93248e+06
-1199.06
-7971.32
83.9694
-1022.72
-428590
-40437.7
-3672.29
-12014.4
-19058.2
-7368.97
-10228.1
-112375
-14719.3
-66000
-55724.2
-27957
-396832
-32233
-49795.1
-13022.4
-52764.1
-39913.8
-54682.9
-82459.1
-353279
-11684.6
-31307.9
-420.207
-58146.6
-80076.8
1247.04
-15216.7
-15167.4
-21918
5422.9
-113953
-61204.2
-379856
-18109.1
-294841
-105086
-4847.24
-488664
-144128
-19878
-410229
-64533.6
-2736.81
-38046.1
-4.3032e+06
-129128
-515406
-15638.7
-215298
-1269.66
-1565.19
-422987
-170961
-520297
-26966
-38277.6
-148398
-18555.6
-148080
-17417.2
-418502
-21171.7
-68437.6
-507419
-109675
-29745.4
-43397
-190085
-46565.2
-402321
-14421.1
-70675.9
-482512
-159859
-16975.6
-378218
478.282
-85300.1
-27233
-34821.9
-10758.3
-448319
-29872.5
-198424
-346941
-864.852
-14431.8
-8889.89
-70217.7
-130301
-403180
-161513
-20310
-1394.18
-305271
-4.89296e+06
-29.6464
-174485
-343324
-19102.4
-193319
-8321.54
-20643.1
-5633.83
-249941
-32458.4
-14798.5
-265858
-14268.9
-6.256e+06
-213444
-151829
-37088.7
-180027
-33821.8
-71270.2
-12271.8
-396256
-27356.1
-14308.2
-166750
-52546.8
-44714.3
-177671
-357115
-91471
-242493
-18004.4
-15947.4
-78050.7
-4634.58
-54892.9
-51676
-321154
-29647.2
-84754.5
-136757
-8944.71
-133067
-285447
-85344.5
-256304
-15945.2
6684.39
1232.73
-10786.7
-133055
-48301.4
-9557.11
-247634
-72279
-17631.2
-21112
-155466
-188552
-37527.9
-205165
-119700
-251799
-175985
-156010
-229181
-117349
-14684.6
-9329.11
-9645.95
-6882.46
-240782
-16338.4
-101024
-283807
-5.80288e+06
-214113
-5270.56
-45287.4
-62773.4
-231965
-6761.19
-167142
-130976
398.323
-5.51195e+06
-279773
-74988.9
-257501
-4397.78
-3243.08
-51684.1
-239033
-197791
-269261
-9428.75
-3814.04
-97728
-7392.33
-306316
-3565.49
1405.64
-214705
-300375
-227544
-201026
-256912
-152148
-106679
-6126.17
-188892
-788.581
-247654
-7.28967e+06
-908.887
-208141
-162949
-17006.9
-111217
-148561
-303277
-6308.37
-1781.06
-297375
-112932
-158241
379.63
-108241
-87245.7
-118796
-107179
-5826.13
-347740
-77659.5
-234562
-35795
-164958
-66338.8
-8.22638e+06
-84524.8
-80661
-55431.9
492.867
-1990.94
-26177.8
-271039
-83685.4
490.205
-12257.2
-83197.7
-85.6787
-258.554
-56550.7
784.081
-55020.7
-206738
173.185
-12682.7
-94852.2
507.282
-58701.9
-52060.3
-110619
-128539
-2320.79
-232672
-263222
132.744
-74394.5
-4960.88
-30603.4
-365458
-692876
-1298.3
-173766
-27699.7
-71624.3
-85055.6
-818649
-1.27828e+06
-1104.84
-4277.5
-1.25897e+06
-16132.7
-85687.3
-196338
-1.39908e+06
-9622.99
-900564
-14266.3
-7.48208e+06
330.942
-568748
-97095.6
-83884.6
-110161
-147363
-7520.62
-25656.8
-88997.4
-2410.53
359.346
-2018.22
-4919.52
-933.001
-154416
-10009.9
-126245
-466.478
-67225.9
-1450.26
148.894
-6.86176e+06
277.563
-87468
-96210.1
-107466
-730.506
-179.072
-73116.8
-3153.31
-4960.77
-9037.21
164.809
-112830
-14404.3
-89724.1
-81729.6
-319.166
-1.03864e+07
-7.23528e+06
-79543.5
-1285.65
-81736.7
-2342.51
-59236
-71260.2
-80597.8
-3020.33
-95354.7
-55642.6
-5233.27
-111300
-60035.3
-5858.63
-58404
-166827
-9.2888e+06
-65324.4
-9407.89
-10017.2
-98013.3
-49124.5
-45562.1
-10059.7
-8390.9
-9.75466e+06
-14143.3
-56042
-7404.7
-13560.5
-38914.8
-6451.52
-83118.9
-50858.5
-19091.4
-5489.68
-18428.1
-1.26757e+07
-35017.3
-70813
-25083
-4538.18
-67901.6
-23340.4
-3623.55
-38638.4
-28374.6
-24629.7
-2856.97
-9.04488e+06
-1.11728e+07
-30741.5
-52173.2
-2133.42
-8.82365e+06
-27020
-1447.88
-38156.8
-38252.8
-984.547
-1.4911e+07
-374.921
-71.1953
82.3203
-1.28816e+07
-45174.5
-1.21839e+07
-47262.5
-45799.5
-44082.4
217.479
-42585
-40717.3
-39197.9
-37300.9
-1.09161e+07
-35846.2
-325.106
-33970.8
-32603.7
-30749
-1773.7
-29368.8
-27851.9
-26486.7
-24893.3
-3313.38
-23927.1
-1.07635e+07
-22584.9
-21516.8
-4746.19
-20521.9
-19463.9
-9908.6
-18739.4
-17226
-14750.8
-13044.3
-11724.2
-10801.4
-1.28294e+07
-9732.87
-1.45844e+07
-6736.9
-4517.19
-1838.41
-366.778
213.063
170.396
-230.381
-1063.11
-1.26906e+07
-969.699
-1792.45
-4576.89
-1.47641e+07
-5666.04
-9241.9
-4733.6
-3871.69
-3078.61
-2363.18
-1703.72
-1.69774e+07
-1182.3
-768.084
-466.401
-303.95
-47.1067
1113.79
-1.46196e+07
-55.1831
-910.115
-3614.42
-11498.5
-20416.7
-1.9512e+07
-28848
-32825.3
-60502.7
-1.68002e+07
-8218.37
-7477.27
-6955.56
-6443.28
-5939.72
-5468.37
-5002.55
-4561.25
-4134.33
-3722.93
-3332.92
-2941.04
-2596.03
-2239.19
-1922.61
-1576.57
-1302.18
-885.893
-709.043
-279.871
-152.152
-203.093
723.59
1158.15
1149.48
-17.1676
-899.983
-2438.23
-4331.24
-6318.4
-10964.7
-17175
-23101.8
-27091.6
-34887
-45088.8
-46832.7
-48920.4
-66277.4
-86041.3
SCALARS cohesion float 1
LOOKUP_TABLE default
4.09204
4.33491
9.5288
5.04897
15.2418
4.77958
9.39097
4.62143
5.1158
9.56378
10.5254
5.70431
10.9294
10.8641
6.24012
8.08407
8.16025
6.69478
8.01157
9.02306
6.68614
7.74296
6.69627
8.91481
6.65993
12.3436
9.10751
11.6323
6.69353
12.979
7.27335
6.69786
14.0231
6.06163
7.30331
13.183
6.76928
9.60163
12.6984
8.70195
7.88056
13.3675
6.76818
14.0663
5.6187
9.89818
8.52063
7.51058
8.16703
14.7749
9.71723
15.5329
9.0651
8.37806
15.5714
8.97103
9.38598
15.2554
9.21963
6.52697
6.68257
14.2638
6.32877
9.8085
10.0004
9.11767
9.59676
8.88867
8.54536
6.06129
9.39592
9.18895
8.43473
9.12054
10.4609
7.4346
8.47561
11.2151
10.424
12.1334
10.6134
8.54693
10.5124
11.5434
11.0645
11.0507
11.1135
11.2177
11.2256
11.2342
11.1778
11.1032
11.1988
11.2084
10.5306
8.56917
11.244
11.172
11.2111
11.124
11.0669
11.2038
11.1944
12.9886
11.2201
11.1578
11.2451
11.0992
11.174
11.0461
11.2403
7.67096
11.2594
11.0365
8.5942
9.34271
9.49244
11.1933
11.0524
11.2337
9.54448
11.1307
10.5829
11.2701
11.0614
11.3146
10.9345
11.2104
11.0743
11.2979
10.9491
11.3002
11.1683
11.2383
11.0924
8.66775
10.8156
11.3682
11.287
10.8269
10.9719
11.1109
10.8326
11.266
6.13118
11.3398
10.8453
11.1368
11.4088
10.8571
11.2214
10.6472
11.0071
11.3701
10.672
8.73349
11.3044
10.8742
11.3826
10.663
11.1629
11.3644
10.8911
10.6856
11.4817
10.4911
11.3427
11.0577
10.4975
11.1998
10.9156
10.5052
9.54476
11.4359
11.2968
8.80757
10.5156
10.7182
10.9403
10.5263
11.2375
11.5349
11.3972
11.4794
10.5419
10.376
9.73526
11.4943
10.9752
10.5577
10.796
11.13
10.3899
10.7652
11.4735
8.90123
11.2893
11.4517
10.5801
10.4105
11.0103
11.621
11.4041
10.32
10.6026
10.327
11.5698
10.4404
10.3337
11.3431
10.3436
10.8327
11.0602
10.635
10.3536
11.5272
8.96494
11.2326
11.699
9.61223
10.3682
10.484
11.6359
7.57942
10.6676
10.3829
11.6468
10.3708
11.1096
11.4147
6.15394
11.6251
10.3843
10.4041
10.9669
11.6026
9.06018
10.712
10.4042
10.4253
10.9267
11.5522
10.5454
11.8038
11.1772
9.9024
11.4881
10.433
10.4545
10.6363
11.7524
10.2436
10.7568
10.6431
10.65
11.3734
10.66
10.4838
11.7048
10.6699
10.4734
9.13607
11.2463
9.68026
10.6842
10.631
12.1092
11.9184
10.8188
11.586
10.6985
11.8469
10.5252
11.8559
11.0564
10.7193
11.8317
11.1599
10.5312
11.8074
11.1746
10.7403
10.5667
11.1932
11.3369
10.8799
11.7528
9.22574
11.1957
10.7693
11.6844
12.0545
11.2265
10.622
11.5631
10.7984
10.7476
6.18649
11.9951
10.6106
10.0724
11.7396
9.83264
10.9623
11.4288
11.7474
11.9409
11.2696
11.7552
10.8381
11.7663
9.33768
10.678
11.7774
11.2291
11.8117
11.7933
10.8776
11.8091
12.2017
11.3295
12.1205
11.0429
12.1283
11.8316
12.0998
11.5449
10.7171
10.7506
11.8539
12.0719
10.931
12.1812
9.43471
12.0108
10.8999
12.1972
11.4786
11.8855
10.0047
11.9355
7.84512
11.4111
12.2202
11.9167
10.9828
11.8038
11.1456
10.8211
12.2522
12.3706
11.6591
10.2726
11.9582
12.2994
6.19155
12.297
11.4446
12.2347
12.1273
9.57048
11.05
10.852
11.9989
12.1346
12.142
11.5165
12.1523
12.0894
11.2445
10.9106
12.1625
12.3571
10.1842
9.7844
12.177
12.0531
12.1912
11.1148
12.5527
11.2352
11.0863
11.7976
12.4515
12.2112
12.4572
12.4217
12.2309
12.1059
12.3887
9.68146
12.4373
10.9946
12.3179
12.2582
11.3631
12.2326
11.7082
11.8087
11.6474
11.1944
12.285
11.7208
12.086
12.1728
10.4858
11.7384
11.0119
10.3157
11.926
12.3207
6.38158
11.7624
12.7394
12.5388
11.6907
12.3553
12.6464
11.0938
12.2357
10.5031
9.83854
11.2678
11.7949
12.5647