# vtk DataFile Version 3.0
File generated from DClib
ASCII

DATASET UNSTRUCTURED_GRID
POINTS 1909 float
50 0 0 
48.75 0 0 
50 1.66667 0 
47.5 0 0 
50 3.33333 0 
46.25 0 0 
50 5 0 
45 0 0 
43.75 0 0 
50 6.66667 0 
43 2 0 
42.5 0 0 
50 8.33333 0 
43 4.66667 0 
41.25 0 0 
41.075 2 0 
50 10 0 
40 0 0 
43 7.33333 0 
39.15 2 0 
38.75 0 0 
43 10 0 
37.5 0 0 
37.225 2 0 
36.25 0 0 
36 4 0 
35.3 2 0 
36 5 0 
35 0 0 
35.325 4 0 
36 6 0 
36 7 0 
34.65 4 0 
36 8 0 
33.75 0 0 
33.975 4 0 
36 9 0 
33.375 2 0 
33.3 4 0 
36 10 0 
32.5 0 0 
32.625 4 0 
33 6 0 
31.95 4 0 
33 7.45455 0 
31.45 2 0 
31.25 0 0 
31.95 6 0 
33 8.79545 0 
31.275 4 0 
33 10 0 
30.6 4 0 
30 0 0 
30.9 6 0 
29.925 4 0 
29.525 2 0 
29.85 6 0 
29.25 4 0 
28.75 0 0 
30 8 0 
30 8.45455 0 
28.575 4 0 
29.625 8 0 
30 8.90909 0 
28.8 6 0 
30 9.25 0 
29.782 8.90909 0 
30 9.59091 0 
29.9487 9.59091 0 
29.25 8 0 
29.7462 9.25 0 
30 9.79545 0 
29.897 9.59091 0 
29.564 8.90909 0 
29.9547 9.79545 0 
29.3462 8.45455 0 
29.84 9.59091 0 
30 10 0 
29.8975 9.79545 0 
29.9882 10 0 
29.9902 10.0098 0 
29.7827 9.59091 0 
29.9765 10 0 
29.9804 10.0196 0 
29.9667 10.0098 0 
29.9591 10 0 
29.9686 10.0196 0 
29.9659 10.0341 0 
29.9569 10.0196 0 
29.9418 10 0 
29.9395 10.0196 0 
29.9515 10.0485 0 
29.932 10.0098 0 
29.9424 10.0341 0 
29.8241 9.79545 0 
29.7181 9.59091 0 
29.9166 10 0 
29.9397 10.0485 0 
29.9222 10.0196 0 
29.9279 10.0485 0 
29.9305 10.0695 0 
29.8914 10 0 
29.9077 10.0341 0 
27.9 4 0 
29.897 10.0196 0 
29.9106 10.0485 0 
29.8817 10.0098 0 
29.907 10.0695 0 
29.8933 10.0485 0 
29.9095 10.0905 0 
29.8719 10.0196 0 
27.6 2 0 
29.8556 10 0 
29.8978 10.0905 0 
29.6531 9.59091 0 
29.3437 8.90909 0 
27.5 0 0 
29.8681 10.0485 0 
29.886 10.0905 0 
29.8574 10.0341 0 
29.4839 9.25 0 
29.8723 10.0695 0 
29.7289 9.79545 0 
29.836 10.0196 0 
29.8687 10.0905 0 
29.8197 10 0 
29.8797 10.1203 0 
29.843 10.0485 0 
29.8513 10.0905 0 
29.81 10.0098 0 
29.8561 10.1203 0 
29.8002 10.0196 0 
29.8221 10.0695 0 
29.8072 10.0485 0 
29.8262 10.0905 0 
29.5782 9.59091 0 
29.8498 10.1502 0 
29.7695 10 0 
29.7858 10.0341 0 
29.838 10.1502 0 
29.8215 10.1203 0 
29.8011 10.0905 0 
29.8262 10.1502 0 
29.7714 10.0485 0 
28.875 8 0 
29.75 10.0196 0 
29.8089 10.1502 0 
29.7654 10.0905 0 
29.7193 10 0 
29.7916 10.1502 0 
29.7505 10.0695 0 
29.8079 10.1921 0 
29.7713 10.1203 0 
29.7096 10.0098 0 
29.6047 9.79545 0 
29.503 9.59091 0 
29.7213 10.0485 0 
29.7665 10.1502 0 
29.6999 10.0196 0 
29.7844 10.1921 0 
29.7296 10.0905 0 
29.6856 10.0341 0 
29.7414 10.1502 0 
29.7497 10.1921 0 
29.6503 10 0 
29.7661 10.2339 0 
29.6712 10.0485 0 
29.6999 10.1203 0 
29.7543 10.2339 0 
29.6796 10.0905 0 
29.7057 10.1502 0 
29.7425 10.2339 0 
29.1235 8.90909 0 
29.6309 10.0196 0 
29.6504 10.0695 0 
29.4146 9.59091 0 
29.7252 10.2339 0 
29.6996 10.1921 0 
29.6701 10.1502 0 
29.7079 10.2339 0 
29.6296 10.0905 0 
29.5813 10 0 
29.6023 10.0485 0 
29.5716 10.0098 0 
29.6828 10.2339 0 
29.7086 10.2914 0 
29.2101 9.25 0 
29.562 10.0196 0 
29.6201 10.1502 0 
29.6578 10.2339 0 
29.4428 9.79545 0 
29.5999 10.1203 0 
29.6849 10.2914 0 
29.6283 10.1921 0 
29.5477 10.0341 0 
29.3259 9.59091 0 
29.5608 10.0905 0 
29.5335 10.0485 0 
29.6221 10.2339 0 
29.6503 10.2914 0 
29.5702 10.1502 0 
29.4881 10 0 
29.5128 10.0695 0 
29.6511 10.3489 0 
29.5866 10.2339 0 
29.6392 10.3489 0 
29.4689 10.0196 0 
29.6002 10.2914 0 
29.6273 10.3489 0 
29.4921 10.0905 0 
29.61 10.3489 0 
29.5286 10.1921 0 
29.5016 10.1502 0 
29.5368 10.2339 0 
29.5926 10.3489 0 
29.4405 10.0485 0 
29.2199 9.59091 0 
29.4626 10.1203 0 
29.3949 10 0 
28.9 8.90909 0 
29.5676 10.3489 0 
29.5291 10.2914 0 
29.3853 10.0098 0 
28.6923 8.45455 0 
29.487 10.2339 0 
29.5426 10.3489 0 
29.3758 10.0196 0 
29.5734 10.4266 0 
29.4331 10.1502 0 
29.3993 10.0905 0 
28.5 8 0 
29.3617 10.0341 0 
29.5496 10.4266 0 
29.5071 10.3489 0 
29.2327 9.79545 0 
29.3475 10.0485 0 
29.1136 9.59091 0 
29.4187 10.2339 0 
29.5148 10.4266 0 
29.4716 10.3489 0 
29.3918 10.1921 0 
29.3271 10.0695 0 
29.4298 10.2914 0 
29.2714 10 0 
29.3406 10.1502 0 
28.9208 9.25 0 
29.3066 10.0905 0 
29.4648 10.4266 0 
29.422 10.3489 0 
29.4958 10.5042 0 
29.2524 10.0196 0 
27.75 6 0 
29.3504 10.2339 0 
29.4837 10.5042 0 
29.4718 10.5042 0 
29.2774 10.1203 0 
29.4543 10.5042 0 
29.3724 10.3489 0 
29.2244 10.0485 0 
29.4369 10.5042 0 
29.3938 10.4266 0 
28.9853 9.59091 0 
29.2481 10.1502 0 
28.6766 8.90909 0 
29.4119 10.5042 0 
29.2934 10.2914 0 
27.225 4 0 
29.148 10 0 
29.2582 10.2339 0 
29.1837 10.0905 0 
29.3869 10.5042 0 
29.1385 10.0098 0 
29.3044 10.3489 0 
29.1291 10.0196 0 
29.2072 10.1921 0 
29.3514 10.5042 0 
29.1152 10.0341 0 
29.3929 10.6071 0 
29.2949 10.4266 0 
29.1013 10.0485 0 
29.3686 10.6071 0 
29.316 10.5042 0 
29.2364 10.3489 0 
28.9623 9.79545 0 
29.1257 10.1502 0 
29.1662 10.2339 0 
29.0811 10.0695 0 
28.8566 9.59091 0 
29.3336 10.6071 0 
29.2666 10.5042 0 
29.0609 10.0905 0 
28.9875 10 0 
29.2835 10.6071 0 
29.1448 10.3489 0 
29.0321 10.1203 0 
29.2173 10.5042 0 
29.1098 10.2914 0 
28.125 8 0 
28.9688 10.0196 0 
29.1594 10.4266 0 
28.611 9.25 0 
29.29 10.71 0 
28.4486 8.90909 0 
29.0443 10.2339 0 
29.0033 10.1502 0 
29.2777 10.71 0 
28.9413 10.0485 0 
29.2128 10.6071 0 
29.2655 10.71 0 
29.1497 10.5042 0 
29.2478 10.71 0 
28.7003 9.59091 0 
29.0533 10.3489 0 
29.2303 10.71 0 
28.9629 10.1921 0 
28.9013 10.0905 0 
29.2051 10.71 0 
29.0822 10.5042 0 
29.1801 10.71 0 
28.827 10 0 
29.1144 10.6071 0 
28.8177 10.0098 0 
28.9225 10.2339 0 
28.8085 10.0196 0 
29.1447 10.71 0 
28.7949 10.0341 0 
28.8443 10.1502 0 
28.977 10.4266 0 
28.9322 10.3489 0 
29.1094 10.71 0 
28.7813 10.0485 0 
28.9912 10.5042 0 
29.1562 10.8438 0 
28.5436 9.59091 0 
28.7615 10.0695 0 
28.8669 10.2914 0 
29.1313 10.8438 0 
28.6184 9.79545 0 
29.0602 10.71 0 
28.2207 8.90909 0 
28.7418 10.0905 0 
28.0378 8.45455 0 
28.9798 10.6071 0 
29.0958 10.8438 0 
29.0112 10.71 0 
28.9005 10.5042 0 
28.7136 10.1203 0 
28.7644 10.2339 0 
28.8113 10.3489 0 
29.0454 10.8438 0 
28.6223 10 0 
28.6854 10.1502 0 
28.2746 9.25 0 
28.9441 10.71 0 
28.6042 10.0196 0 
27.75 8 0 
28.9747 10.8438 0 
28.6459 10.1921 0 
28.5773 10.0485 0 
29.0225 10.9775 0 
28.3532 9.59091 0 
28.7804 10.5042 0 
28.736 10.4266 0 
28.8772 10.71 0 
29.0097 10.9775 0 
28.9971 10.9775 0 
28.799 10.6071 0 
28.9791 10.9775 0 
28.5384 10.0905 0 
28.6064 10.2339 0 
28.6543 10.3489 0 
28.9611 10.9775 0 
28.8769 10.8438 0 
27.9867 8.90909 0 
26.25 0 0 
28.9358 10.9775 0 
28.7871 10.71 0 
28.9106 10.9775 0 
28.6607 10.5042 0 
28.4177 10 0 
26.55 4 0 
28.552 10.2914 0 
28.483 10.1502 0 
28.4087 10.0098 0 
28.8751 10.9775 0 
28.3998 10.0196 0 
28.3866 10.0341 0 
28.8399 10.9775 0 
28.6974 10.71 0 
28.3735 10.0485 0 
28.1625 9.59091 0 
28.7436 10.8438 0 
28.4976 10.3489 0 
28.3543 10.0695 0 
28.791 10.9775 0 
28.4052 10.2339 0 
28.3352 10.0905 0 
28.8519 11.1481 0 
28.1869 9.79545 0 
28.5607 10.6071 0 
28.5053 10.5042 0 
28.7423 10.9775 0 
28.8258 11.1481 0 
28.308 10.1203 0 
28.5787 10.71 0 
27.904 9.25 0 
28.7893 11.1481 0 
28.424 10.4266 0 
27.7528 8.90909 0 
28.2807 10.1502 0 
28.6758 10.9775 0 
27.375 8 0 
28.7383 11.1481 0 
28.1619 10 0 
28.5649 10.8438 0 
28.2425 10.1921 0 
28.6096 10.9775 0 
28.1444 10.0196 0 
28.298 10.3489 0 
28.4605 10.71 0 
26.7 6 0 
27.9315 9.59091 0 
28.3503 10.5042 0 
28.6676 11.1481 0 
28.1187 10.0485 0 
28.2042 10.2339 0 
28.5207 10.9775 0 
28.0813 10.0905 0 
28.6814 11.3186 0 
27.3818 8.45455 0 
28.6679 11.3186 0 
28.1516 10.2914 0 
28.5703 11.1481 0 
28.6544 11.3186 0 
28.6358 11.3186 0 
27.5109 8.90909 0 
28.3072 10.71 0 
28.6173 11.3186 0 
28.2524 10.6071 0 
28.4322 10.9775 0 
28.028 10.1502 0 
28.5915 11.3186 0 
28.0989 10.3489 0 
28.33 10.8438 0 
28.5658 11.3186 0 
28.153 10.5042 0 
27.9061 10 0 
27.8975 10.0098 0 
28.5303 11.3186 0 
28.4384 11.1481 0 
27.7002 9.59091 0 
27.889 10.0196 0 
27.8765 10.0341 0 
28.4949 11.3186 0 
28.3154 10.9775 0 
27.9532 10.2339 0 
27.8639 10.0485 0 
28.0276 10.4266 0 
28.1544 10.71 0 
27.8457 10.0695 0 
27.4909 9.25 0 
28.4463 11.3186 0 
27 8 0 
27.8275 10.0905 0 
28.3979 11.3186 0 
27.8015 10.1203 0 
27.6542 9.79545 0 
25.675 2 0 
28.1991 10.9775 0 
27.2691 8.90909 0 
27.9563 10.5042 0 
28.4682 11.5318 0 
28.2625 11.1481 0 
27.7755 10.1502 0 
28.3322 11.3186 0 
27.8502 10.3489 0 
28.4401 11.5318 0 
25.875 4 0 
27.7391 10.1921 0 
28.4019 11.5318 0 
28.0268 10.8438 0 
28.2668 11.3186 0 
27.9602 10.71 0 
28.3498 11.5318 0 
27.4223 9.59091 0 
27.7026 10.2339 0 
27.5927 10 0 
28.0486 10.9775 0 
27.8616 10.6071 0 
27.5762 10.0196 0 
28.1794 11.3186 0 
28.2786 11.5318 0 
27.5519 10.0485 0 
27.6524 10.2914 0 
28.0319 11.1481 0 
27.7108 10.5042 0 
27.5167 10.0905 0 
27.0169 8.90909 0 
28.0924 11.3186 0 
27.6021 10.3489 0 
27.8988 10.9775 0 
28.1818 11.5318 0 
27.7667 10.71 0 
26.625 8 0 
28.255 11.745 0 
27.4664 10.1502 0 
28.2402 11.745 0 
28.2256 11.745 0 
28.2059 11.745 0 
27.978 11.3186 0 
26.7234 8.45455 0 
27.0259 9.25 0 
27.5342 10.4266 0 
28.1863 11.745 0 
27.1442 9.59091 0 
28.0516 11.5318 0 
28.1598 11.745 0 
27.3959 10.2339 0 
28.1334 11.745 0 
27.2793 10 0 
27.2714 10.0098 0 
27.2635 10.0196 0 
27.7086 10.9775 0 
27.6431 10.8438 0 
28.0975 11.745 0 
27.8643 11.3186 0 
27.4661 10.5042 0 
27.2518 10.0341 0 
27.2401 10.0485 0 
28.0617 11.745 0 
26.7648 8.90909 0 
27.5255 10.71 0 
27.7353 11.1481 0 
27.2231 10.0695 0 
28.0133 11.745 0 
27.2061 10.0905 0 
27.8791 11.5318 0 
27.2986 10.3489 0 
27.1818 10.1203 0 
27.9651 11.745 0 
27.3758 10.6071 0 
27.0077 9.79545 0 
27.7174 11.3186 0 
27.1576 10.1502 0 
25 0 0 
27.5193 10.9775 0 
27.9003 11.745 0 
27.1236 10.1921 0 
26.25 8 0 
27.9939 12.0061 0 
25.65 6 0 
27.8359 11.745 0 
26.8136 9.59091 0 
27.0896 10.2339 0 
27.9626 12.0061 0 
27.2853 10.71 0 
25.2 4 0 
27.5713 11.3186 0 
27.9218 12.0061 0 
26.4998 8.90909 0 
27.167 10.5042 0 
27.6541 11.5318 0 
27.0427 10.2914 0 
27.7503 11.745 0 
26.9033 10 0 
27.8677 12.0061 0 
26.8882 10.0196 0 
26.8659 10.0485 0 
26.9958 10.3489 0 
27.2836 10.9775 0 
27.6652 11.745 0 
27.3609 11.1481 0 
27.7955 12.0061 0 
26.499 9.25 0 
[...]
POINT_DATA 1909
SCALARS phi float 1
LOOKUP_TABLE default
-2.13076e+06
-1.37013e+06
-323315
-882076
-327782
-779512
-322796
-460339
-365975
-340327
-2.64797e+06
-192422
-1.89017e+06
-296622
-122323
-1.25062e+06
-5.82143e+06
-46952.1
-226384
-900932
-8634.82
-6.14817e+06
8502.3
-642481
16702.9
-3.32449e+06
-455432
-63186
9075.06
-2.37841e+06
-114920
-109536
-1.73563e+06
-107136
-591.095
-1.99195e+06
-1.53294e+06
-327252
-1.52014e+06
-6.12387e+06
-7749.54
-1.75802e+06
-59934.5
-1.36038e+06
-62370.4
-247873
-15857.1
-36714.1
-197096
-1.587e+06
-2.52988e+06
-1.24242e+06
-10849.8
-36582.5
-1.46418e+06
-210259
-45129.2
-1.16131e+06
-5678.3
-253.491
141.66
-1.38375e+06
-19608.8
84.5357
-57203.9
-5923.12
-40848.7
-31470.7
-10926.3
-24048.3
-28772.3
-47211.7
-10058.9
-45817.9
-8557.84
-90056.7
-8998.11
-61739.5
-10721.6
-213.845
-5593.35
-8815.56
-1068.71
-1846.7
-94740.4
-1021.57
-21145.6
-15533.5
-35765
-6969.12
-6569.35
-29983.1
-47543.8
-59390.9
-12917.7
-8630.66
-5717.73
-21298.7
10950.7
-9721.19
-28905.9
-21995.7
-3261.57
-1.11333e+06
7653.33
-29180.2
-26119.6
-24683.9
-22132.2
-25696.7
990.406
-212901
-18013.7
-34011.3
-10501.6
-46293.3
148.047
-31927.8
-28972.9
7781.67
-30687.7
-52457.5
-15721.3
1255.54
-34061.7
-39532.6
-48071.3
-7902.8
-19760.4
-10661.5
-49977.4
-806.787
-41208.3
-7001.43
-35781.8
-10651.9
-53133.3
-32841.3
1724.52
-62683
-42319.5
-27324
-45319.6
3308.66
-31127.7
70.8317
-56190.3
-48362.4
-49226.8
-43179.6
-8039.49
-86543.6
-54861.6
-4130.88
-19223.5
-14011.4
1206.99
-51951.2
-40.1199
-80002.8
-27275.4
-237.849
-32941.5
-75129.4
-42254.1
-83012.8
426.031
-61566.3
-102129
-24690.7
-51688.8
-78938.6
-48292.2
40.5917
2360.81
-14105
-93750.5
-63754.2
-33555.7
-68669.8
-1353.4
-48839.4
324.403
-1766.14
-82350.9
-137174
-33797.8
15.8575
-66944.8
-59224
-24794.2
-26607.9
-127896
-64191.6
-15.9669
-19084
-2546.69
26.6186
-69913.9
-114124
-43840.6
-45124.9
430.483
-131434
-44656.6
-157803
4.56824
-99233.1
-119736
660.155
-142894
-76366.1
-40560.4
-66902.2
-106182
51.7286
-18847.1
-977.678
-52974.4
-47926.3
-124147
-81181.4
-644.127
-94507
-40419.7
-88639
11.4686
-193329
-7362.32
-22.3287
-36387.2
17.4765
-180478
-104070
-34795.5
20.9768
-25660.8
-85375.2
-164014
-73050.3
-40981.2
38.6602
-74752.2
-51428.5
-6790.74
-37725.7
49.0848
-144447
-86898.9
-174315
7.60533
-69119.7
-58160.1
-212684
-165789
30.5522
-200823
-55139.9
15.8237
-153545
-124775
-25102.8
11.8657
-49803.4
-186019
-92773.2
-1.34067e+06
-67676.7
-51629.9
-99.2217
-139652
-85.4849
-88522
9.65988
-4652.4
-166789
17.7754
-242990
-104022
10.044
-234108
-120456
-52892.7
-50655.2
-810.159
-11316.2
-38.6196
-34538
-222405
-143620
-93.2649
-65509.9
-208091
-106959
-307.141
-100996
-49215.2
-40186
-6.61408
-96766.9
-42301.1
-198832
-48642.1
-9452.08
-331.441
-246690
-6.77285
-193383
-197348
-123425
-242708
-33320.1
-70235
-191142
-1079.01
-133.586
-235695
-76851.2
-184419
-92260.6
-183196
-8.82199
-1131.66
-11.3767
-233220
-32.7886
-557.547
-122593
-55701.8
-184521
-33.1108
-144426
-251947
-45676.6
-107.557
-7065.77
-244839
-71364.8
-240792
-50265.4
-120.866
-92874.7
-173316
-238712
-191994
-93537.3
-398.26
-1823.29
-11584.5
-235941
-85849.1
-473.707
-47614.5
-254702
-87.3111
-43249.8
-239806
-1164.88
-113.166
-164254
-43556.7
-146676
-50890.8
-199147
-199726
-158707
-180827
-196264
-236.376
-1221.64
-9467.82
-158522
-252808
-48551.5
-10841.7
-198342
-259253
-161641
-82218.6
-126305
-1.09362e+06
-2724.1
-594.341
-159.859
-204298
-147.84
-219.872
-166999
-165438
-201.707
-59238.4
-276675
-2636.35
-328.34
-215730
-1437.19
-297.145
-201945
-95862.3
-208426
-55661.9
-177727
-201294
-580.622
-337955
-53804.1
-198050
-8467.23
-50204.5
-551.379
-241423
-45096.5
-192482
-117545
-297973
-1230.37
-204089
-156.435
-3177.49
-254192
-79479.8
-56381.5
-10940.5
-185890
-258.06
-1257.62
-308434
-444.124
-153615
-88507.7
-187486
-2672.13
-182581
-149410
-180379
-47978.7
-279259
-142054
-62561.7
-275132
-810.475
-169041
-2714.12
-398871
-131153
-9484.54
-157947
-128.731
-154187
-193506
-76320.3
-127.796
-222.855
-118418
-432480
-1582.42
-221.74
-5292.62
-126344
-403.949
-60993.6
-138696
-47418.1
-402.989
-107008
-750.725
-124421
-264638
-322164
-49778.5
-5131.6
-207774
-241920
-753.737
-127647
-3066.2
-202438
-1.32629e+06
-1418.66
-194292
-397801
-102280
-72469.5
-182977
-72472.5
-1428.5
-151326
-700018
-12122.7
-107.099
-129559
-168619
-204.508
-2639.42
-319657
-5472.28
-396.392
-47078.8
-111236
-2609.23
-584330
-152572
-14140.1
-49453.6
-166668
-775.026
-204086
-163465
-198762
-185962
-82682.8
-69161.7
-4906.69
-158060
-96523.8
-139034
-190174
-1508.22
-149626
-209153
-68.8967
-67.6974
-494295
-86006.5
-177524
-180137
-4854.86
-137.583
-135.753
-137728
-49103.7
-11978.1
-572328
-275.113
-160601
-272.28
-139776
-2855.53
-545.19
-122614
-8511.86
-159311
-393209
-541.43
-47336.3
-175777
-140541
-1061.15
-51184.2
-202992
-86825.2
-106387
-90849.1
-1057.13
-200946
-8267.22
-1.09186e+06
-326164
-196769
-46020.7
-5181.68
-193888
-2021.42
-120945
-198377
-190332
-46.5027
-112.4
-2025.64
-87065.2
-94773.7
-427798
-181869
-78013.3
-252.209
-17073.3
-715045
-3791.14
-171963
-112666
-538.494
-8789.82
-48268.1
-76015.2
-117067
-356376
-3772.16
-53202.1
-152133
-1107.08
-103506
-187289
-161116
-18440.8
-150973
-573813
-185386
-149135
-182734
-258736
-6908.27
-13.0971
-12.5556
-146816
-50.2494
-2201.12
-191227
-48.928
-179845
-137.365
-150166
-144647
-134.796
-326.501
-44839.9
-6867.42
-177602
-70011.3
-391897
-322.401
-211665
-143326
-16678
-193134
-714.555
-874211
-4198.84
-176448
-109513
-709.95
-54170.9
-146126
-1.3244e+06
-142583
-12786.7
-87111.7
-1475.65
-771639
-216432
-112414
-174404
-220083
-1471.91
-47237.8
-222469
-244318
0.0458843
-139383
-13316.1
-7758.25
-223051
-27.3253
-2909.65
-905557
-107.366
-69037.7
-194115
-221185
-162780
-2921.01
-300.048
-88771.1
-62712.8
-135920
-216022
-537999
-55902.8
-126767
-23698.8
-719.394
-5500.04
-43522.5
-1.56065e+06
-206462
-182512
-128462
-14173
-206307
-1572.24
-5557
-259018
-212818
-391272
-306579
-266223
-545831
2.89203
2.80391
-217903
-23848.2
5.21647
-191035
-104782
-270917
5.39836
-1.15042e+06
-23.8305
-220316
-22.7777
-9921.24
-271332
-3228.64
-126.069
-95555.3
-1.09015e+06
-218432
-46007.2
-123.567
-55968.2
-264976
-382.861
-135538
-125936
-220882
-209883
-379.003
-168618
-9919.95
-248701
-71411.5
-944.262
-583632
-62113.5
-6311.11
-23585.3
-192157
-942.215
-122550
-1.32394e+06
-221189
-2077.23
-18035.4
-42121.5
-271850
-144584
-282745
-165664
-275534
-13.7151
-2085.65
5.55299
-56987.7
-276540
-714674
-108239
-4.55585
-187253
-273766
-4238.06
-11766.9
-91.9596
-148941
-18342.7
-266044
-136586
-351.396
-4285.19
-845402
-252474
-44678.4
-144452
-155322
-960.787
-1.31688e+06
-82095.1
-64947.3
-8196.39
-102228
-233034
-489909
-31658.8
-55895.3
-115891
-2236.01
-1.2526e+06
-329664
-234594
-95.1092
-95.4877
-8350.03
-55383
-290504
-20885.1
-42.87
-209402
-43.7155
-235094
-0.0510581
-289870
-0.574412
-121566
-233537
2.76778
-285834
3.44539
-40725
-228545
-136484
-33501.1
-98.7858
-450581
-277246
-4711.98
-96.3642
-14752.4
-184006
-219703
-105980
-810165
-232798
-320218
-428.173
-264225
-55508.3
-424.949
-207726
-248151
-1206.89
-14775.4
-159691
-194104
-159569
-1207.89
-9181
-79041.7
-43303.8
-230402
-382964
-35944.2
-1.07538e+06
-2807.09
-297538
-179728
-159.627
-144859
-88.1394
-259903
-24650.7
-995655
-19.9854
-2823.34
-210515
-261183
-152986
-52950.5
10.1433
-260859
-48756.6
-148015
-105438
-163078
-70.9812
-5780.77
-258764
-90328.9
-16574.6
-913865
-254679
-404.274
-39337
-24520.4
-189664
-5804.28
-65075.1
-248381
-145784
-1242.88
-640850
-1.06536e+06
-239678
-50492.5
-10961.2
-170501
-167363
-67306.9
-321426
-358.643
-358.302
-257.023
-41899.3
-258.081
-3009.34
-239106
-143.879
-228320
-145.492
-38.2355
-138163
-41573.3
-207342
-11043.4
-39.2941
-1.31186e+06
-126281
-255617
-28221.1
13.63
-206568
-877052
13.7866
-255626
-207419
-83.6433
-214328
-256923
-225241
-82.6433
-208752
-6349.48
-128151
-41960.9
-258255
-46349.3
-43558.5
-19302.6
-504.775
-209668
-604921
-505.846
-258540
-365132
-740000
-209340
-197888
-118947
-1544.71
-257143
-37539.2
-19358.2
-207577
-1556.01
-103013
-12159.2
-254246
-284870
-455.891
-339.313
-145832
-277972
-3669.2
-70329.8
-202.308
-204584
-47092.6
-41727
-180401
-66.9704
-184845
-249520
-3707.68
13.2655
-237481
-31563.7
-1.07384e+06
-246342
-199681
-168365
-69.6504
-41711.7
-506552
-38883.9
-255014
-7528.65
-241419
-514.274
-263066
-21359.7
-34288.7
-187568
-68224.3
-269907
-191573
-7600.38
-31445.3
-36332.7
-561505
-1656.94
-275014
-229393
-286709
-747.368
-13886
-277804
-744.242
-604.715
-127884
-603.746
-434.635
-435.225
-180327
-247.232
-4014.48
-500835
-248.069
-34553.7
-72.9397
-68006
-277719
-73.1033
-47594.4
-162111
17.8332
-13922.5
-215878
-131674
-30333.2
18.0361
-207125
-34774.3
-197402
-111.155
-263043
-1.38032e+06
-218963
-274604
-113.298
-277961
-8296.02
-92423.8
-174614
-231262
-328300
-695.051
-293142
-23435.5
-243510
-706.389
-307640
-47305.9
-269874
-976173
-26059.1
-254696
-34347.4
-196865
-2101.11
-320485
-24109.5
-264289
-566806
-2130.96
-124762
-150894
-331355
-23287.7
-244265
-850.226
-1.07463e+06
-15298.8
-699.516
-272292
-510.688
-20181.3
-138652
-266826
-295.527
-4847.1
-340170
-91.6224
-278631
18.6406
-51608.2
-66777.6
-4901.39
-347007
-765259
-120.387
-112368
-35779.7
-18442.1
-29449
-283581
-1.17668e+06
-290720
-268021
-9573.42
-311109
-774.249
-352109
-330487
-256810
-25730.9
-863580
-287361
-9645.73
-348479
-2353.19
-17809.5
-34802.9
-62264.6
-354842
-364437
-102233
-223409
-340748
-1190.02
-1185.07
-12620.5
-1016.4
-1013.37
-802.005
-378059
-800.673
-820212
-288302
-551.823
-16940.6
-551.106
-286.842
-27192.1
-285.875
-5422.43
-71648.1
-60.7825
-388399
-59.6119
-342985
18.3858
18.1109
-145805
-394423
-16969.7
-48588.4
-65543.6
-382432
-236.963
-266655
-38841.8
-1.63968e+06
-243.209
-90671.1
-8184.19
-1.2826e+06
-395328
-10675.9
-300890
-1119.89
-387102
-5562.57
-283695
-1.78034e+06
-325987
-1139.4
-416848
-27264.1
-349006
-217814
-388410
-21684.5
-443976
-3040.27
-87262.8
-262332
-45710.1
-369860
-467724
-10149.3
-3079.98
-171353
-1285.87
-387510
-1103.05
-869.587
-487826
-591.528
-3984.35
-365283
-19021.6
-26183.7
-297.069
-797898
-402376
-6509.15
-90937.4
-1.19696e+06
-52.9308
-503965
-413644
13.2362
-6566.88
-514449
-940629
-314.678
-49169.1
-327256
-419383
-61289
-1.48767e+06
-17405.6
-35712
-517083
-12183.5
-1364.9
-1496.89
-88312.9
-417548
-2.2159e+06
-419140
-506834
-28112.1
-61867.2
-449403
-12336.9
-42146.5
-287667
-401842
-3583.43
-1.7289e+06
-224708
-475363
-32792
-127481
-1.95967e+06
-1591.4
-473062
-1589.37
-1398.71
-1398.26
-1153.06
-1154
-856.362
-497387
-3970.33
-857.852
-57509.1
-525.66
-526.84
-361988
-19240.5
-207.498
102.713
439.37
-207.924
-514433
-7457.2
3.90963
-12013.3
4.08899
-418486
-524753
-503150
-52.1615
-1.13314e+06
-74496.5
-51.6645
-311211
-17484.7
-526607
-620.222
-2.17924e+06
-43005.4
-1.9843e+06
-616.977
-59982.9
-35104.9
-516367
-13394.2
-336082
-2023.92
-313509
187.117
-78109
-2012.63
-39901.4
-489364
-239931
-24575.9
-1.65691e+06
-463191
-4618.62
-596795
-6990.65
-502632
-442752
-79077.6
-1688.59
-228325
-1472.07
-635872
-38071.6
-4552.13
-178298
-1194.64
-860.459
-526465
-495.603
-658075
-18567.4
-162.072
-391.726
-22035.9
-538438
-8593.06
-380004
-1235.21
-202737
22.5643
-665754
-538846
-136.376
-662269
-8311.24
-74166.6
-2.04371e+06
-532814
-819077
-1.06107e+06
-919.765
-299801
-649996
-13689.3
-38809.6
-518844
-28362.1
-48755.2
-12738.1
-3372.6
-624627
-4153.59
-2647.97
-1.36193e+06
-21358.1
-490967
-3437.78
-22674.7
-578671
-71690
-201623
-11236.9
-444159
-5580.63
-2.06964e+06
-508529
-42362
-1770.84
-1777.98
-1515.93
-1521.83
-1191.2
-1196.68
-549543
-809.596
-23910.7
-815.417
-411.746
-377280
-418.086
-83.8143
-124382
-88.4599
-15814.2
-545267
19.5056
-416555
-53094.8
-44185.2
21.4779
-9511.61
-1.50217e+06
-354.266
-7558.82
-536503
-296782
152.767
-342.219
-3.17529e+06
-21365.4
-605.285
-524.307
-1558.96
52.0575
-521101
-3.00082e+06
-953.792
-306498
-1531.81
-13662
-3549.43
-7606.26
-498081
-3974.63
-201804
-27476.7
-737289
-12938.6
-3837.1
-23914.9
-12099.5
4469.57
-466789
-39485.3
-19253.3
-8565.3
-159990
-2.58364e+06
-2254.52
-7996.08
-192.977
-53.0662
-424636
-26252.1
-1331.31
-11518.3
-17361
-7577.01
-4912.97
-66431.2
-7978.31
-161811
-44255.6
-16230.1
-370872
-19538.9
-32995.8
-13216
-33084.3
2735.19
-35132.7
-54254.5
-305102
-12061.2
-20881.7
270.394
-38855.4
-53668.8
-32093.4
-14667.3
-13989.1
-18240.5
-24061.7
-78156
-96780.2
-492326
-17253.3
-225171
-73700.3
-886.546
-603003
-103257
-17412.2
-482833
-44034.3
-4601.86
-541014
-2.80811e+06
-94205.6
-580754
-14405.9
-129288
-2035.16
44.1573
-456377
-126432
-540196
-18495.1
-33408.5
-1.55815e+06
-14740.5
-110702
-7948.7
-417610
-18754.7
-45447.7
-486514
-28681.1
-19138.4
-48251.3
-142755
-26482.9
-369741
-13161
-1.22392e+06
-424683
-119982
-16361.1
-317625
114.276
-53468.1
-22763
-24859.8
-11432.8
-358100
-27731.3
-152316
-261939
-643223
-10006.8
-10081.8
-44083.5
-86232.5
-286654
-126347
-19816.1
-3305.43
-202632
-3.18047e+06
194.33
-122296
-209951
-385826
-150427
-149273
-10811.7
-1296.91
-138288
-28205.9
-13872
-125317
-5991.88
-4.03936e+06
-156967
-116279
-29766.9
-67624.5
-17115.8
-42858.2
-9267.84
-333194
-4529.84
-7997.02
-38380.5
-837142
-24911.2
-130425
-281781
-5313.6
-180493
-8206.18
-13679.7
-46978.9
-4695.93
3858.85
-38183
-233034
-13631.3
-53977.1
-94498.5
-29371.2
-87453.8
-183974
-68527.9
-189224
-11018.1
-179234
-135821
-8755.17
-89919.9
-37263.6
-3867.92
-131511
-42040.7
-17499.2
-397000
-107947
-135353
-33708.7
-76126.5
-1.02657e+06
-177740
-130380
-24425
-1.55059e+06
-80421.7
-14060
-6063.63
-11727.8
-2226.97
-185732
-7688.03
2870.09
-1.90758e+06
-3.71792e+06
-170177
-3410.7
-41577.4
-46842.6
-159412
-7589.81
-1.31587e+06
-84972.3
-1254.24
-3.58555e+06
-218605
-44984.5
-188964
-1215.91
-254313
-755561
-183483
-145639
-150023
-8780.91
-4892.45
-61097.1
-790730
-159271
-42.9794
-116312
-161515
-221407
-109063
-139307
-110965
-117125
-1.77776e+06
-16486.6
-71801.9
-1514
-176099
-4.73186e+06
-401.134
-65327.7
-128763
-5929.81
-72009.8
-35854.4
-2.91949e+06
-486.915
-3217.15
-206065
-92035.9
-22905.1
-285.82
-5938.57
-60813.1
-100353
1313.95
-2911.68
-2.73081e+06
-49161.6
-157041
-16883.5
-108588
-2641.94
-5.22715e+06
-55860.9
-71018.7
-30159.9
382.996
-2069.72
-70382.5
-184346
-1.03324e+06
-65.1412
-195814
-77179.6
-296677
-1347.95
-27326.4
-640399
-54310.2
-143948
-66559.6
-837418
-59029.8
-186.533
-1.60356e+06
-59086.8
-1.93062e+06
-85941.1
4.95496
-162793
-3.36399e+06
329.413
-35735.1
-1159.31
-41443.9
-3.76429e+06
-5.88505e+06
178.683
-124967
-44377.3
-45063.5
-58570.3
-5.98437e+06
-7.93625e+06
-1825.49
-461.389
-6.77137e+06
-30061.3
-43114
-134684
-6.43486e+06
-1955.41
-3.41483e+06
-30550.4
-4.72741e+06
-311.648
-2.09685e+06
-65138.5
-61846.5
-416577
-96443.1
-19911
-131668
-49489.8
132.735
-3730.15
183.727
-18443
-1022.88
-101335
-1590.44
-84901.7
-1375.03
-53487.5
-11196.9
-701.333
-4.45208e+06
-585.756
-51684.2
-59251.1
-72534.4
-90.4146
-8366.33
-53637
192.837
-11.0427
-810.691
-3716.43
-75654.6
-2413.57
-68723
-48137.5
-2713.41
-6.52834e+06
-4.68874e+06
-54705
-869.033
-59418.9
7.47951
-48232.1
-46197.2
-60681.3
189.232
-45226.7
-44772.3
-304.491
-77830.4
-36338.3
-1225.18
-47512.8
-109859
-5.82139e+06
-51047.3
-2418.23
-6021.47
-63514
-30567.4
-37569.8
-3172.37
-5157.87
-6.35119e+06
-4885.99
-48722
-4566.47
-4894.88
-26070.8
-3982.6
-58669
-43667.2
-7200.14
-3397.17
-7001.24
-7.93091e+06
-25050.9
-57326.8
-9443.63
-2826.13
-52702.3
-9424.89
-2285.08
-31105.7
-13109.2
-13020.7
-1640.98
-5.87511e+06
-6.99259e+06
-18497.7
-45141.2
-668.395
-5.77069e+06
-18926.2
246.361
-31358.8
-34987.6
336.086
-9.36963e+06
194.872
-74.7202
-823.62
-8.13866e+06
-30719.5
-8.02841e+06
-31351.1
-30340.1
-29185.3
-1748.01
-28234.4
-27013.4
-26056.4
-24792
-7.14773e+06
-23861.2
-2920.81
-22564.1
-21646.2
-20320.6
-4955.67
-19402.5
-18007.9
-17051.1
-16181.8
-6740.48
-15343.9
-7.1528e+06
-14404.1
-13798.9
-9308.03
-11848.6
-6174.1
-14348.9
-4274.13
-3128.96
-1935.45
-1666.44
-1137.65
-489.426
-8.51096e+06
-47.2945
-9.79548e+06
281.375
384.523
299.485
23.2896
-732.345
-1953.59
-2649.26
-4036.45
-8.62201e+06
-4902.13
-6480.56
-9700.76
-9.9634e+06
-3697.42
-13518
-3083.62
-2508.45
-1967.9
-1462.72
-997.384
-1.16813e+07
-530.267
-157.871
131.118
431.867
847.956
654.099
-1.01947e+07
345.865
-1260.82
-3052.48
-5430.73
-11356
-1.37654e+07
-19694.9
-26662.4
-43031.2
-1.1995e+07
-5296.05
-4858.95
-4507.91
-4187.07
-3853.37
-3561.75
-3251.75
-2986.59
-2700.85
-2463.22
-2199.44
-2001.54
-1749.87
-1556.45
-1324.57
-1117.1
-963.581
-749.057
-687.882
-171.999
-242.04
-503.279
-421.212
-462.711
-397.568
-847.384
12.0473
536.843
79.4638
-798.111
-1773.55
-2610.77
-4473.09
-6736.74
-10222.4
-14953.4
-18500.8
-21850.2
-29559.5
-38355.1
SCALARS cohesion float 1
LOOKUP_TABLE default
4.75958
5.75348
9.20016
5.42811
10.2008
5.81827
7.50575
6.12586
6.59762
9.92024
8.85206
7.10931
11.9194
8.36754
8.0089
11.5044
10.0057
9.04668
12.9029
13.1558
10.684
7.93675
12.1188
15.1478
12.655
12.6457
16.4726
12.9904
12.6597
12.5896
16.5926
17.0897
12.5184
13.8449
11.4788
12.7753
10.0959
15.8149
12.8806
9.78383
10.5739
12.8694
17.6773
12.8291
15.473
14.5989
10.189
18.4134
9.00001
13.0739
7.9496
13.1874
10.2549
19.2012
14.0579
14.8279
19.9235
15.0295
10.5755
14.8216
12.9567
16.1747
14.5826
9.36007
20.1618
8.20452
9.11041
8.24348
7.70267
14.6346
8.36225
8.41321
6.98259
10.0284
8.85624
10.7165
7.16984
14.1537
8.62579
11.0537
10.2507
7.329
10.1588
10.6126
10.5098
10.2487
10.6389
10.373
10.2965
10.5734
10.4007
10.6417
10.3179
10.4761
8.68439
7.27177
10.472
10.5634
10.455
10.5665
10.6487
10.409
10.4937
17.7143
10.4515
10.5655
10.3586
10.6548
10.5756
10.7109
10.4395
16.5133
10.4148
10.7211
7.20754
9.57635
11.2026
10.5788
10.713
10.5081
8.17752
10.6561
8.6884
10.4498
10.7207
10.4305
10.7775
10.5835
10.7257
10.369
10.786
10.4579
10.668
10.5911
10.7313
7.19728
10.8186
10.4267
10.5234
10.8181
10.7947
10.7363
10.8217
10.5983
14.0481
10.467
10.8251
10.7435
10.436
10.829
10.682
10.8106
10.8053
10.3889
8.69692
7.17889
10.6064
10.8339
10.4718
10.8153
10.7498
10.5398
10.8384
10.8213
10.4436
10.7648
10.6142
10.8177
10.7673
10.7579
10.8444
10.7688
9.3069
10.4837
10.6978
7.16952
10.7719
10.8298
10.8501
10.7747
10.765
10.4633
10.6231
10.4033
10.7785
10.6658
8.14127
10.4908
10.8573
10.782
8.68918
10.8324
10.6693
10.8403
10.5563
7.14164
10.7736
10.6306
10.7869
10.674
10.8637
10.4698
10.7132
10.5262
10.7913
10.5275
10.4987
10.6802
10.5289
10.7794
10.5308
10.8518
10.8701
10.7964
10.5326
10.6361
7.1429
10.8451
10.4811
9.14198
10.5349
10.6869
10.4108
10.4528
10.8002
10.537
10.501
10.2906
10.8746
10.7843
13.4933
10.5643
10.2923
10.5393
8.66514
10.6382
7.12352
10.8039
10.2942
10.5411
10.8598
10.7193
10.6928
10.4782
10.8768
8.04212
10.7844
10.2962
10.543
10.1095
10.4985
19.5923
10.8054
10.1099
10.1103
10.8476
10.1106
10.5438
10.633
10.1109
10.2975
7.10694
10.8744
8.99952
10.111
10.6932
18.6798
10.4782
10.8032
10.7783
10.111
10.3959
10.5427
10.4877
10.8562
10.1103
10.549
9.93092
10.2953
10.6225
9.93042
10.1091
10.5397
8.60896
10.8662
10.798
10.7021
7.07431
9.92944
10.1066
10.7658
10.455
9.92704
10.5332
10.8266
10.1033
10.6812
12.7254
10.4654
10.2864
7.89586
9.80514
8.73996
10.7851
10.8507
9.80435
10.5966
9.92223
9.80353
10.0977
9.80234
7.03643
10.5231
9.80107
10.8281
10.7383
9.79915
10.0905
9.79703
10.4264
9.91323
10.3326
10.7657
10.4315
9.79384
10.4888
10.8208
10.2632
10.5041
9.79025
10.561
10.0775
9.54144
6.98016
10.639
10.6434
9.53894
8.50363
9.78415
8.4919
10.7012
9.74464
9.89485
9.53505
9.77732
10.0618
10.7598
10.7318
10.4803
9.52877
10.3776
10.7814
7.69012
9.76707
10.3714
11.9552
9.51859
10.7554
10.5017
9.19515
6.92316
10.0373
10.2144
9.75558
9.19328
9.19136
9.86163
9.18859
10.6406
10.6898
10.4417
9.18577
9.50256
8.26902
11.8374
9.1817
9.73815
9.17747
10.009
10.2972
20.0388
10.5636
10.7198
10.2012
9.1714
10.3046
10.36
9.16515
9.71888
10.4312
6.85262
9.47699
10.3974
10.5086
9.15585
10.6267
10.5706
8.79165
8.33713
9.80537