# vtk DataFile Version 3.0
File generated from DClib
ASCII

DATASET UNSTRUCTURED_GRID
POINTS 1909 float
50 0 0 
48.75 0 0 
50 1.66667 0 
47.5 0 0 
50 3.33333 0 
46.25 0 0 
50 5 0 
45 0 0 
43.75 0 0 
50 6.66667 0 
43 2 0 
42.5 0 0 
50 8.33333 0 
43 4.66667 0 
41.25 0 0 
41.075 2 0 
50 10 0 
40 0 0 
43 7.33333 0 
39.15 2 0 
38.75 0 0 
43 10 0 
37.5 0 0 
37.225 2 0 
36.25 0 0 
36 4 0 
35.3 2 0 
36 5 0 
35 0 0 
35.325 4 0 
36 6 0 
36 7 0 
34.65 4 0 
36 8 0 
33.75 0 0 
33.975 4 0 
36 9 0 
33.375 2 0 
33.3 4 0 
36 10 0 
32.5 0 0 
32.625 4 0 
33 6 0 
31.95 4 0 
33 7.45455 0 
31.45 2 0 
31.25 0 0 
31.95 6 0 
33 8.79545 0 
31.275 4 0 
33 10 0 
30.6 4 0 
30 0 0 
30.9 6 0 
29.925 4 0 
29.525 2 0 
29.85 6 0 
29.25 4 0 
28.75 0 0 
30 8 0 
30 8.45455 0 
28.575 4 0 
29.625 8 0 
30 8.90909 0 
28.8 6 0 
30 9.25 0 
29.782 8.90909 0 
30 9.59091 0 
29.9487 9.59091 0 
29.25 8 0 
29.7462 9.25 0 
30 9.79545 0 
29.897 9.59091 0 
29.564 8.90909 0 
29.9547 9.79545 0 
29.3462 8.45455 0 
29.84 9.59091 0 
30 10 0 
29.8975 9.79545 0 
29.9882 10 0 
29.9902 10.0098 0 
29.7827 9.59091 0 
29.9765 10 0 
29.9804 10.0196 0 
29.9667 10.0098 0 
29.9591 10 0 
29.9686 10.0196 0 
29.9659 10.0341 0 
29.9569 10.0196 0 
29.9418 10 0 
29.9395 10.0196 0 
29.9515 10.0485 0 
29.932 10.0098 0 
29.9424 10.0341 0 
29.8241 9.79545 0 
29.7181 9.59091 0 
29.9166 10 0 
29.9397 10.0485 0 
29.9222 10.0196 0 
29.9279 10.0485 0 
29.9305 10.0695 0 
29.8914 10 0 
29.9077 10.0341 0 
27.9 4 0 
29.897 10.0196 0 
29.9106 10.0485 0 
29.8817 10.0098 0 
29.907 10.0695 0 
29.8933 10.0485 0 
29.9095 10.0905 0 
29.8719 10.0196 0 
27.6 2 0 
29.8556 10 0 
29.8978 10.0905 0 
29.6531 9.59091 0 
29.3437 8.90909 0 
27.5 0 0 
29.8681 10.0485 0 
29.886 10.0905 0 
29.8574 10.0341 0 
29.4839 9.25 0 
29.8723 10.0695 0 
29.7289 9.79545 0 
29.836 10.0196 0 
29.8687 10.0905 0 
29.8197 10 0 
29.8797 10.1203 0 
29.843 10.0485 0 
29.8513 10.0905 0 
29.81 10.0098 0 
29.8561 10.1203 0 
29.8002 10.0196 0 
29.8221 10.0695 0 
29.8072 10.0485 0 
29.8262 10.0905 0 
29.5782 9.59091 0 
29.8498 10.1502 0 
29.7695 10 0 
29.7858 10.0341 0 
29.838 10.1502 0 
29.8215 10.1203 0 
29.8011 10.0905 0 
29.8262 10.1502 0 
29.7714 10.0485 0 
28.875 8 0 
29.75 10.0196 0 
29.8089 10.1502 0 
29.7654 10.0905 0 
29.7193 10 0 
29.7916 10.1502 0 
29.7505 10.0695 0 
29.8079 10.1921 0 
29.7713 10.1203 0 
29.7096 10.0098 0 
29.6047 9.79545 0 
29.503 9.59091 0 
29.7213 10.0485 0 
29.7665 10.1502 0 
29.6999 10.0196 0 
29.7844 10.1921 0 
29.7296 10.0905 0 
29.6856 10.0341 0 
29.7414 10.1502 0 
29.7497 10.1921 0 
29.6503 10 0 
29.7661 10.2339 0 
29.6712 10.0485 0 
29.6999 10.1203 0 
29.7543 10.2339 0 
29.6796 10.0905 0 
29.7057 10.1502 0 
29.7425 10.2339 0 
29.1235 8.90909 0 
29.6309 10.0196 0 
29.6504 10.0695 0 
29.4146 9.59091 0 
29.7252 10.2339 0 
29.6996 10.1921 0 
29.6701 10.1502 0 
29.7079 10.2339 0 
29.6296 10.0905 0 
29.5813 10 0 
29.6023 10.0485 0 
29.5716 10.0098 0 
29.6828 10.2339 0 
29.7086 10.2914 0 
29.2101 9.25 0 
29.562 10.0196 0 
29.6201 10.1502 0 
29.6578 10.2339 0 
29.4428 9.79545 0 
29.5999 10.1203 0 
29.6849 10.2914 0 
29.6283 10.1921 0 
29.5477 10.0341 0 
29.3259 9.59091 0 
29.5608 10.0905 0 
29.5335 10.0485 0 
29.6221 10.2339 0 
29.6503 10.2914 0 
29.5702 10.1502 0 
29.4881 10 0 
29.5128 10.0695 0 
29.6511 10.3489 0 
29.5866 10.2339 0 
29.6392 10.3489 0 
29.4689 10.0196 0 
29.6002 10.2914 0 
29.6273 10.3489 0 
29.4921 10.0905 0 
29.61 10.3489 0 
29.5286 10.1921 0 
29.5016 10.1502 0 
29.5368 10.2339 0 
29.5926 10.3489 0 
29.4405 10.0485 0 
29.2199 9.59091 0 
29.4626 10.1203 0 
29.3949 10 0 
28.9 8.90909 0 
29.5676 10.3489 0 
29.5291 10.2914 0 
29.3853 10.0098 0 
28.6923 8.45455 0 
29.487 10.2339 0 
29.5426 10.3489 0 
29.3758 10.0196 0 
29.5734 10.4266 0 
29.4331 10.1502 0 
29.3993 10.0905 0 
28.5 8 0 
29.3617 10.0341 0 
29.5496 10.4266 0 
29.5071 10.3489 0 
29.2327 9.79545 0 
29.3475 10.0485 0 
29.1136 9.59091 0 
29.4187 10.2339 0 
29.5148 10.4266 0 
29.4716 10.3489 0 
29.3918 10.1921 0 
29.3271 10.0695 0 
29.4298 10.2914 0 
29.2714 10 0 
29.3406 10.1502 0 
28.9208 9.25 0 
29.3066 10.0905 0 
29.4648 10.4266 0 
29.422 10.3489 0 
29.4958 10.5042 0 
29.2524 10.0196 0 
27.75 6 0 
29.3504 10.2339 0 
29.4837 10.5042 0 
29.4718 10.5042 0 
29.2774 10.1203 0 
29.4543 10.5042 0 
29.3724 10.3489 0 
29.2244 10.0485 0 
29.4369 10.5042 0 
29.3938 10.4266 0 
28.9853 9.59091 0 
29.2481 10.1502 0 
28.6766 8.90909 0 
29.4119 10.5042 0 
29.2934 10.2914 0 
27.225 4 0 
29.148 10 0 
29.2582 10.2339 0 
29.1837 10.0905 0 
29.3869 10.5042 0 
29.1385 10.0098 0 
29.3044 10.3489 0 
29.1291 10.0196 0 
29.2072 10.1921 0 
29.3514 10.5042 0 
29.1152 10.0341 0 
29.3929 10.6071 0 
29.2949 10.4266 0 
29.1013 10.0485 0 
29.3686 10.6071 0 
29.316 10.5042 0 
29.2364 10.3489 0 
28.9623 9.79545 0 
29.1257 10.1502 0 
29.1662 10.2339 0 
29.0811 10.0695 0 
28.8566 9.59091 0 
29.3336 10.6071 0 
29.2666 10.5042 0 
29.0609 10.0905 0 
28.9875 10 0 
29.2835 10.6071 0 
29.1448 10.3489 0 
29.0321 10.1203 0 
29.2173 10.5042 0 
29.1098 10.2914 0 
28.125 8 0 
28.9688 10.0196 0 
29.1594 10.4266 0 
28.611 9.25 0 
29.29 10.71 0 
28.4486 8.90909 0 
29.0443 10.2339 0 
29.0033 10.1502 0 
29.2777 10.71 0 
28.9413 10.0485 0 
29.2128 10.6071 0 
29.2655 10.71 0 
29.1497 10.5042 0 
29.2478 10.71 0 
28.7003 9.59091 0 
29.0533 10.3489 0 
29.2303 10.71 0 
28.9629 10.1921 0 
28.9013 10.0905 0 
29.2051 10.71 0 
29.0822 10.5042 0 
29.1801 10.71 0 
28.827 10 0 
29.1144 10.6071 0 
28.8177 10.0098 0 
28.9225 10.2339 0 
28.8085 10.0196 0 
29.1447 10.71 0 
28.7949 10.0341 0 
28.8443 10.1502 0 
28.977 10.4266 0 
28.9322 10.3489 0 
29.1094 10.71 0 
28.7813 10.0485 0 
28.9912 10.5042 0 
29.1562 10.8438 0 
28.5436 9.59091 0 
28.7615 10.0695 0 
28.8669 10.2914 0 
29.1313 10.8438 0 
28.6184 9.79545 0 
29.0602 10.71 0 
28.2207 8.90909 0 
28.7418 10.0905 0 
28.0378 8.45455 0 
28.9798 10.6071 0 
29.0958 10.8438 0 
29.0112 10.71 0 
28.9005 10.5042 0 
28.7136 10.1203 0 
28.7644 10.2339 0 
28.8113 10.3489 0 
29.0454 10.8438 0 
28.6223 10 0 
28.6854 10.1502 0 
28.2746 9.25 0 
28.9441 10.71 0 
28.6042 10.0196 0 
27.75 8 0 
28.9747 10.8438 0 
28.6459 10.1921 0 
28.5773 10.0485 0 
29.0225 10.9775 0 
28.3532 9.59091 0 
28.7804 10.5042 0 
28.736 10.4266 0 
28.8772 10.71 0 
29.0097 10.9775 0 
28.9971 10.9775 0 
28.799 10.6071 0 
28.9791 10.9775 0 
28.5384 10.0905 0 
28.6064 10.2339 0 
28.6543 10.3489 0 
28.9611 10.9775 0 
28.8769 10.8438 0 
27.9867 8.90909 0 
26.25 0 0 
28.9358 10.9775 0 
28.7871 10.71 0 
28.9106 10.9775 0 
28.6607 10.5042 0 
28.4177 10 0 
26.55 4 0 
28.552 10.2914 0 
28.483 10.1502 0 
28.4087 10.0098 0 
28.8751 10.9775 0 
28.3998 10.0196 0 
28.3866 10.0341 0 
28.8399 10.9775 0 
28.6974 10.71 0 
28.3735 10.0485 0 
28.1625 9.59091 0 
28.7436 10.8438 0 
28.4976 10.3489 0 
28.3543 10.0695 0 
28.791 10.9775 0 
28.4052 10.2339 0 
28.3352 10.0905 0 
28.8519 11.1481 0 
28.1869 9.79545 0 
28.5607 10.6071 0 
28.5053 10.5042 0 
28.7423 10.9775 0 
28.8258 11.1481 0 
28.308 10.1203 0 
28.5787 10.71 0 
27.904 9.25 0 
28.7893 11.1481 0 
28.424 10.4266 0 
27.7528 8.90909 0 
28.2807 10.1502 0 
28.6758 10.9775 0 
27.375 8 0 
28.7383 11.1481 0 
28.1619 10 0 
28.5649 10.8438 0 
28.2425 10.1921 0 
28.6096 10.9775 0 
28.1444 10.0196 0 
28.298 10.3489 0 
28.4605 10.71 0 
26.7 6 0 
27.9315 9.59091 0 
28.3503 10.5042 0 
28.6676 11.1481 0 
28.1187 10.0485 0 
28.2042 10.2339 0 
28.5207 10.9775 0 
28.0813 10.0905 0 
28.6814 11.3186 0 
27.3818 8.45455 0 
28.6679 11.3186 0 
28.1516 10.2914 0 
28.5703 11.1481 0 
28.6544 11.3186 0 
28.6358 11.3186 0 
27.5109 8.90909 0 
28.3072 10.71 0 
28.6173 11.3186 0 
28.2524 10.6071 0 
28.4322 10.9775 0 
28.028 10.1502 0 
28.5915 11.3186 0 
28.0989 10.3489 0 
28.33 10.8438 0 
28.5658 11.3186 0 
28.153 10.5042 0 
27.9061 10 0 
27.8975 10.0098 0 
28.5303 11.3186 0 
28.4384 11.1481 0 
27.7002 9.59091 0 
27.889 10.0196 0 
27.8765 10.0341 0 
28.4949 11.3186 0 
28.3154 10.9775 0 
27.9532 10.2339 0 
27.8639 10.0485 0 
28.0276 10.4266 0 
28.1544 10.71 0 
27.8457 10.0695 0 
27.4909 9.25 0 
28.4463 11.3186 0 
27 8 0 
27.8275 10.0905 0 
28.3979 11.3186 0 
27.8015 10.1203 0 
27.6542 9.79545 0 
25.675 2 0 
28.1991 10.9775 0 
27.2691 8.90909 0 
27.9563 10.5042 0 
28.4682 11.5318 0 
28.2625 11.1481 0 
27.7755 10.1502 0 
28.3322 11.3186 0 
27.8502 10.3489 0 
28.4401 11.5318 0 
25.875 4 0 
27.7391 10.1921 0 
28.4019 11.5318 0 
28.0268 10.8438 0 
28.2668 11.3186 0 
27.9602 10.71 0 
28.3498 11.5318 0 
27.4223 9.59091 0 
27.7026 10.2339 0 
27.5927 10 0 
28.0486 10.9775 0 
27.8616 10.6071 0 
27.5762 10.0196 0 
28.1794 11.3186 0 
28.2786 11.5318 0 
27.5519 10.0485 0 
27.6524 10.2914 0 
28.0319 11.1481 0 
27.7108 10.5042 0 
27.5167 10.0905 0 
27.0169 8.90909 0 
28.0924 11.3186 0 
27.6021 10.3489 0 
27.8988 10.9775 0 
28.1818 11.5318 0 
27.7667 10.71 0 
26.625 8 0 
28.255 11.745 0 
27.4664 10.1502 0 
28.2402 11.745 0 
28.2256 11.745 0 
28.2059 11.745 0 
27.978 11.3186 0 
26.7234 8.45455 0 
27.0259 9.25 0 
27.5342 10.4266 0 
28.1863 11.745 0 
27.1442 9.59091 0 
28.0516 11.5318 0 
28.1598 11.745 0 
27.3959 10.2339 0 
28.1334 11.745 0 
27.2793 10 0 
27.2714 10.0098 0 
27.2635 10.0196 0 
27.7086 10.9775 0 
27.6431 10.8438 0 
28.0975 11.745 0 
27.8643 11.3186 0 
27.4661 10.5042 0 
27.2518 10.0341 0 
27.2401 10.0485 0 
28.0617 11.745 0 
26.7648 8.90909 0 
27.5255 10.71 0 
27.7353 11.1481 0 
27.2231 10.0695 0 
28.0133 11.745 0 
27.2061 10.0905 0 
27.8791 11.5318 0 
27.2986 10.3489 0 
27.1818 10.1203 0 
27.9651 11.745 0 
27.3758 10.6071 0 
27.0077 9.79545 0 
27.7174 11.3186 0 
27.1576 10.1502 0 
25 0 0 
27.5193 10.9775 0 
27.9003 11.745 0 
27.1236 10.1921 0 
26.25 8 0 
27.9939 12.0061 0 
25.65 6 0 
27.8359 11.745 0 
26.8136 9.59091 0 
27.0896 10.2339 0 
27.9626 12.0061 0 
27.2853 10.71 0 
25.2 4 0 
27.5713 11.3186 0 
27.9218 12.0061 0 
26.4998 8.90909 0 
27.167 10.5042 0 
27.6541 11.5318 0 
27.0427 10.2914 0 
27.7503 11.745 0 
26.9033 10 0 
27.8677 12.0061 0 
26.8882 10.0196 0 
26.8659 10.0485 0 
26.9958 10.3489 0 
27.2836 10.9775 0 
27.6652 11.745 0 
27.3609 11.1481 0 
27.7955 12.0061 0 
26.499 9.25 0 
[...]
POINT_DATA 1909
SCALARS phi float 1
LOOKUP_TABLE default
VECTORS Displacement float
0 0 0
0 0 0
0 -0.0043092 0
0 0 0
0 -0.00779491 0
0 0 0
0 -0.0104273 0
0 0 0
0 0 0
0 -0.0122639 0
0.000708395 -0.00504484 0
0 0 0
0 -0.0132881 0
0.00131138 -0.00991826 0
0 0 0
0.000982282 -0.00511122 0
0 -0.0135255 0
0 0 0
0.00162224 -0.0126476 0
0.00129906 -0.00519926 0
0 0 0
0.00170427 -0.0133405 0
0 0 0
0.00166257 -0.00533831 0
0 0 0
0.0031013 -0.00953196 0
0.00206339 -0.00555179 0
0.00353396 -0.0109583 0
0 0 0
0.00335788 -0.00965021 0
0.00380021 -0.012082 0
0.0038981 -0.0128892 0
0.00362489 -0.00979102 0
0.00385371 -0.013431 0
0 0 0
0.00389454 -0.00997504 0
0.00374536 -0.013694 0
0.00247745 -0.00585466 0
0.0041709 -0.0101885 0
0.00358398 -0.013742 0
0 0 0
0.00443805 -0.0104391 0
0.00528497 -0.0132454 0
0.0047047 -0.0107235 0
0.00538745 -0.0145133 0
0.00286732 -0.00624982 0
0 0 0
0.00580673 -0.0139851 0
0.00502333 -0.0150102 0
0.00495028 -0.0110377 0
0.0042288 -0.0149737 0
0.00518559 -0.0113868 0
0 0 0
0.00628442 -0.0148403 0
0.00538968 -0.0117559 0
0.00318828 -0.00672565 0
0.00669388 -0.0158003 0
0.0055727 -0.0121568 0
0 0 0
0.00699745 -0.0181672 0
0.00693993 -0.0185076 0
0.00571896 -0.0125662 0
0.007178 -0.0186933 0
0.00680991 -0.0187657 0
0.00701429 -0.0168397 0
0.00665331 -0.0188977 0
0.0069393 -0.0191621 0
0.00641339 -0.018974 0
0.00645754 -0.0190937 0
0.00733637 -0.0192457 0
0.00680978 -0.0194125 0
0.00625066 -0.0189701 0
0.00650069 -0.0192148 0
0.00705527 -0.0195589 0
0.0062894 -0.0191066 0
0.00726186 -0.019561 0
0.00654175 -0.019347 0
0.00597004 -0.0189455 0
0.00633681 -0.0192656 0
0.00600054 -0.0190003 0
0.00602138 -0.0189999 0
0.0065824 -0.0194768 0
0.0060292 -0.0190479 0
0.00605822 -0.0190455 0
0.00606016 -0.0190841 0
0.0060645 -0.0191081 0
0.00607221 -0.0190824 0
0.00610065 -0.0191021 0
0.00608903 -0.0191196 0
0.00609799 -0.0191634 0
0.00611424 -0.0191723 0
0.00613523 -0.0191537 0
0.00611891 -0.0191932 0
0.00612553 -0.0191692 0
0.00639817 -0.0194498 0
0.00662461 -0.0196196 0
0.00613958 -0.0192376 0
0.00614559 -0.019185 0
0.00613919 -0.019223 0
0.00615683 -0.0192168 0
0.0061769 -0.0192233 0
0.00617862 -0.0193075 0
0.00616744 -0.0192666 0
0.00583442 -0.0130006 0
0.00617415 -0.0192934 0
0.00617463 -0.0192636 0
0.00619285 -0.0193342 0
0.0061954 -0.019283 0
0.00619327 -0.01931 0
0.00621142 -0.0192892 0
0.00620701 -0.0193611 0
0.00339885 -0.00725675 0
0.00622695 -0.0194024 0
0.00621946 -0.0193179 0
0.00666741 -0.0197597 0
0.0071616 -0.0199619 0
0 0 0
0.00622039 -0.0193761 0
0.00622805 -0.0193468 0
0.00622764 -0.0194009 0
0.00695564 -0.0199328 0
0.00622642 -0.0193718 0
0.0064771 -0.0196702 0
0.00625088 -0.019454 0
0.0062415 -0.0193897 0
0.00627192 -0.0194933 0
0.00625238 -0.019379 0
0.0062474 -0.0194409 0
0.00625559 -0.0194327 0
0.00628164 -0.0195185 0
0.0062673 -0.0194347 0
0.00629141 -0.0195438 0
0.00627392 -0.0194987 0
0.00628464 -0.019531 0
0.00627668 -0.0194948 0
0.0067147 -0.0199178 0
0.00628641 -0.0194657 0
0.00632736 -0.0196163 0
0.00630604 -0.0195814 0
0.00629314 -0.0194929 0
0.00629149 -0.0195178 0
0.0062982 -0.0195565 0
0.00630013 -0.0195203 0
0.00632041 -0.0196191 0
0.00748076 -0.0198059 0
0.00634388 -0.0196659 0
0.0063109 -0.0195609 0
0.00632885 -0.0196435 0
0.00637871 -0.0197357 0
0.00632209 -0.0196016 0
0.00634033 -0.0196742 0
0.0063255 -0.0195836 0
0.00632905 -0.0196385 0
0.00638541 -0.0197602 0
0.00657513 -0.0199436 0
0.0067622 -0.0200748 0
0.00636779 -0.0197398 0
0.00633886 -0.0196608 0
0.00639216 -0.0197848 0
0.00633814 -0.0196374 0
0.00635919 -0.0197295 0
0.0064023 -0.0198212 0
0.00635609 -0.0197201 0
0.00635795 -0.0197173 0
0.0064419 -0.019896 0
0.00635718 -0.0196991 0
0.00641235 -0.0198579 0
0.00638391 -0.0198086 0
0.00636302 -0.0197258 0
0.0064005 -0.0198482 0
0.00638105 -0.0198042 0
0.00636899 -0.0197525 0
0.0072605 -0.0203617 0
0.0064532 -0.0199449 0
0.00642659 -0.0199115 0
0.00681603 -0.020257 0
0.00637805 -0.019792 0
0.00638842 -0.0198337 0
0.00640623 -0.0198881 0
0.00638734 -0.0198316 0
0.00644035 -0.0199654 0
0.0065003 -0.0200535 0
0.00646967 -0.0200177 0
0.0065049 -0.0200779 0
0.00640117 -0.0198891 0
0.00639138 -0.0198555 0
0.00709529 -0.0204655 0
0.00650949 -0.0201024 0
0.00644127 -0.0200048 0
0.00641532 -0.0199468 0
0.00669232 -0.0202911 0
0.00645878 -0.0200427 0
0.00640249 -0.0199088 0
0.00643355 -0.0199996 0
0.00651632 -0.0201386 0
0.00686901 -0.0204393 0
0.0064926 -0.0201245 0
0.00652309 -0.0201751 0
0.00643589 -0.0200291 0
0.00641944 -0.0199875 0
0.00647583 -0.0201207 0
0.00657196 -0.020263 0
0.00653275 -0.0202282 0
0.00641727 -0.0200105 0
0.00645676 -0.0201114 0
0.00642251 -0.0200373 0
0.00657939 -0.0203122 0
0.006445 -0.020102 0
0.00642782 -0.020064 0
0.00654213 -0.0202818 0
0.00643574 -0.0201034 0
0.00649713 -0.0202306 0
0.00652207 -0.020279 0
0.00648617 -0.0202265 0
0.00644378 -0.0201428 0
0.00659018 -0.0203852 0
0.00692949 -0.0206556 0
0.00655485 -0.0203586 0
0.00663808 -0.0204707 0
0.00735206 -0.0207675 0
0.00645562 -0.0201999 0
0.0064827 -0.0202656 0
0.00664104 -0.0204954 0
0.00750845 -0.0206432 0
0.00651558 -0.0203414 0
0.00646763 -0.0202571 0
0.00664398 -0.0205201 0
0.00644163 -0.0202189 0
0.00656674 -0.0204361 0
0.00660515 -0.0204922 0
0.00759858 -0.0203829 0
0.00664828 -0.0205568 0
0.00645174 -0.020273 0
0.00648502 -0.0203388 0
0.00682776 -0.0207372 0
0.0066525 -0.0205935 0
0.00698791 -0.0208728 0
0.00655558 -0.020499 0
0.00646679 -0.0203523 0
0.00650262 -0.0204205 0
0.00658174 -0.0205455 0
0.00665849 -0.0206472 0
0.00653642 -0.0204949 0
0.00671844 -0.0207435 0
0.00662444 -0.0206469 0
0.00722966 -0.0210233 0
0.00666426 -0.0207011 0
0.00648902 -0.0204671 0
0.0065275 -0.0205351 0
0.00645645 -0.0204273 0
0.00672279 -0.0207936 0
0.00723446 -0.0179266 0
0.00659485 -0.0206559 0
0.0064613 -0.0204548 0
0.00646617 -0.0204822 0
0.00667206 -0.0207784 0
0.00647335 -0.0205223 0
0.00655248 -0.0206496 0
0.00672903 -0.0208678 0
0.00648056 -0.0205623 0
0.00652137 -0.0206308 0
0.00705448 -0.0211342 0
0.00667929 -0.0208564 0
0.00743718 -0.0211718 0
0.00649106 -0.0206201 0
0.00660961 -0.0208093 0
0.00591387 -0.013432 0
0.00679237 -0.0210154 0
0.00664636 -0.0208671 0
0.00673746 -0.0209763 0
0.00650164 -0.0206779 0
0.00679396 -0.0210406 0
0.00658676 -0.020807 0
0.00679552 -0.0210658 0
0.00668832 -0.0209664 0
0.00651681 -0.0207602 0
0.00679773 -0.0211032 0
0.00646389 -0.0207047 0
0.00656729 -0.0208602 0
0.00679987 -0.0211406 0
0.00647336 -0.0207609 0
0.00653207 -0.0208425 0
0.00662076 -0.0209641 0
0.00697924 -0.0213086 0
0.00674792 -0.0211326 0
0.00669602 -0.0210773 0
0.00680282 -0.0211952 0
0.0071177 -0.0213964 0
0.00648718 -0.0208424 0
0.00655355 -0.0209576 0
0.00680558 -0.02125 0
0.0068806 -0.0213669 0
0.0065072 -0.0209594 0
0.00666587 -0.021176 0
0.00680916 -0.0213285 0
0.00657508 -0.0210727 0
0.00670428 -0.0212314 0
0.00770328 -0.0209572 0
0.00688234 -0.021418 0
0.00663032 -0.0211754 0
0.0073576 -0.0216182 0
0.00646018 -0.0209841 0
0.0075151 -0.0215841 0
0.00675889 -0.0213549 0
0.00681231 -0.0214075 0
0.00646481 -0.021013 0
0.0068847 -0.0214938 0
0.00653582 -0.0211255 0
0.00646943 -0.0210418 0
0.00660465 -0.0212309 0
0.00647613 -0.0210834 0
0.00718909 -0.0217143 0
0.00670987 -0.0213871 0
0.00648283 -0.0211248 0
0.00681589 -0.0215189 0
0.00688757 -0.0216044 0
0.00649245 -0.0211843 0
0.00663405 -0.021389 0
0.00650207 -0.0212436 0
0.00696116 -0.0217176 0
0.00657596 -0.0213573 0
0.00696153 -0.0217434 0
0.00681848 -0.0216311 0
0.00696186 -0.0217692 0
0.00651573 -0.0213276 0
0.00696227 -0.0218074 0
0.00689033 -0.0217634 0
0.00671315 -0.0215996 0
0.00676619 -0.0216661 0
0.00652937 -0.0214114 0
0.00696259 -0.0218456 0
0.00667326 -0.021602 0
0.00644117 -0.0213513 0
0.00725561 -0.0220323 0
0.00696292 -0.0219013 0
0.00682031 -0.0217868 0
0.00645034 -0.021411 0
0.00714241 -0.0220325 0
0.00654842 -0.0215284 0
0.00758615 -0.0219952 0
0.00696307 -0.0219572 0
0.00769503 -0.0217332 0
0.00663078 -0.0216752 0
0.00646342 -0.0214963 0
0.0065674 -0.0216451 0
0.00671175 -0.0218145 0
0.00696297 -0.0220371 0
0.00689128 -0.0219887 0
0.00682012 -0.0219439 0
0.006482 -0.0216174 0
0.0070546 -0.0221623 0
0.0069625 -0.0221174 0
0.00747765 -0.0222614 0
0.00659335 -0.0218053 0
0.00705402 -0.0222146 0
0.00778081 -0.0215377 0
0.00650809 -0.0217878 0
0.00696118 -0.0222305 0
0.00705297 -0.022292 0
0.00640901 -0.0217229 0
0.0073294 -0.0224178 0
0.00676137 -0.0220953 0
0.00681653 -0.0221581 0
0.00661907 -0.021965 0
0.00641358 -0.021754 0
0.00641811 -0.0217849 0
0.00670301 -0.0221027 0
0.00642455 -0.0218289 0
0.00705091 -0.0224047 0
0.00695906 -0.0223443 0
0.00688656 -0.0223034 0
0.00643095 -0.0218726 0
0.00654409 -0.0220242 0
0.00765031 -0.0224155 0
0 0 0
0.00644002 -0.0219346 0
0.00665333 -0.0221801 0
0.00644903 -0.0219963 0
0.00680924 -0.0223747 0
0.00713855 -0.0226054 0
0.00595606 -0.0138788 0
0.00695477 -0.0225019 0
0.00704683 -0.0225664 0
0.00713781 -0.0226317 0
0.00646166 -0.022083 0
0.00713704 -0.0226581 0
0.00713582 -0.022697 0
0.0064742 -0.0221694 0
0.00668696 -0.0223945 0
0.00713453 -0.022736 0
0.00739647 -0.0228022 0
0.00659263 -0.0223468 0
0.00694888 -0.0226608 0
0.00713251 -0.0227927 0
0.00649153 -0.0222892 0
0.00703866 -0.0227951 0
0.00713034 -0.0228496 0
0.00635134 -0.0222037 0
0.00730942 -0.0229336 0
0.00679389 -0.022665 0
0.00686862 -0.0227363 0
0.00650868 -0.0224085 0
0.0063605 -0.0222688 0
0.00712696 -0.0229308 0
0.00673039 -0.0226774 0
0.00758787 -0.0229644 0
0.00637324 -0.0223597 0
0.00693828 -0.0228771 0
0.00770711 -0.0228338 0
0.00712325 -0.0230124 0
0.00653193 -0.0225716 0
0.00784845 -0.0221122 0
0.00639095 -0.0224868 0
0.00723199 -0.0231551 0
0.00665607 -0.0227788 0
0.00711748 -0.0231271 0
0.00655484 -0.0227339 0
0.00722933 -0.0232082 0
0.00702248 -0.0231134 0
0.00677239 -0.0229587 0
0.00735306 -0.0190283 0
0.00746866 -0.023265 0
0.00692468 -0.0230954 0
0.00641532 -0.0226634 0
0.0072252 -0.0232869 0
0.00711104 -0.0232424 0
0.00658517 -0.0229518 0
0.00721874 -0.0234013 0
0.00627801 -0.0226918 0
0.00782638 -0.0228171 0
0.00628265 -0.0227262 0
0.00710104 -0.0234018 0
0.00644836 -0.0229062 0
0.00628726 -0.0227604 0
0.00629363 -0.0228077 0
0.00775744 -0.023263 0
0.00682465 -0.0233224 0
0.00629994 -0.0228548 0
0.00690198 -0.0233877 0
0.00661481 -0.0231685 0
0.00720849 -0.0235653 0
0.00630868 -0.0229203 0
0.0070897 -0.0235622 0
0.00673567 -0.0233455 0
0.00631734 -0.0229855 0
0.00699122 -0.02355 0
0.00731336 -0.0237005 0
0.00731162 -0.0237272 0
0.00632929 -0.0230758 0
0.00649218 -0.023235 0
0.00753186 -0.0237248 0
0.00730985 -0.0237539 0
0.00730718 -0.0237934 0
0.00634109 -0.0231657 0
0.00665292 -0.0234539 0
0.007192 -0.0237966 0
0.00730443 -0.023833 0
0.00707222 -0.0237803 0
0.00687412 -0.0236832 0
0.00730032 -0.0238904 0
0.00768537 -0.023739 0
0.00635717 -0.0232891 0
0.00789174 -0.0226836 0
0.00729606 -0.023948 0
0.006373 -0.0234119 0
0.00728974 -0.0240302 0
0.00746774 -0.02403 0
0.00347234 -0.00780863 0
0.00668968 -0.0237373 0
0.00779995 -0.0236892 0
0.00705224 -0.0240001 0
0.00616668 -0.0233124 0
0.00654863 -0.0236727 0
0.00728312 -0.0241126 0
0.00639422 -0.0235785 0
0.00716512 -0.0241177 0
0.00617618 -0.0233855 0
0.0059686 -0.0143131 0
0.00727334 -0.0242284 0
0.00618895 -0.0234846 0
0.00683035 -0.0240717 0
0.00641499 -0.023744 0
0.00693301 -0.0241392 0
0.00620622 -0.0236198 0
0.00759647 -0.0242721 0
0.00726296 -0.0243447 0
0.00739852 -0.024361 0
0.00673531 -0.0241028 0
0.00702186 -0.0242938 0
0.007394 -0.0244147 0
0.00644222 -0.0239651 0
0.00622945 -0.0238045 0
0.00738714 -0.0244941 0
0.00724771 -0.0245052 0
0.00661861 -0.0242438 0
0.00712086 -0.0245567 0
0.00737674 -0.0246095 0
0.0078363 -0.0241288 0
0.00646866 -0.0241845 0
0.0072313 -0.0246665 0
0.00677845 -0.0244649 0
0.00626032 -0.0240551 0
0.00698711 -0.0245903 0
0.00792621 -0.0232488 0
0.00603679 -0.0239435 0
0.00736099 -0.0247747 0
0.00604171 -0.0239827 0
0.00604657 -0.0240217 0
0.00605305 -0.0240739 0
0.00650238 -0.0244723 0
0.00790659 -0.0238852 0
0.00776574 -0.0245966 0
0.00720729 -0.0248855 0
0.00605945 -0.0241257 0
0.00764949 -0.0248133 0
0.00630051 -0.0243911 0
0.00606809 -0.024196 0
0.00733704 -0.0250073 0
0.00607661 -0.0242658 0
0.00746824 -0.0250128 0
0.00746563 -0.0250397 0
0.00746299 -0.0250666 0
0.00682969 -0.0249217 0
0.00693544 -0.0249795 0
0.00608811 -0.0243607 0
0.00653469 -0.0247575 0
0.00718114 -0.0251058 0
0.00745903 -0.0251063 0
0.00745501 -0.0251461 0
0.00609942 -0.0244551 0
0.00786449 -0.0245642 0
0.00704798 -0.0251473 0
0.00670108 -0.0249725 0
0.00744906 -0.0252039 0
0.00611458 -0.0245829 0
0.00744298 -0.0252617 0
0.00635137 -0.0248346 0
0.00730039 -0.0253294 0
0.00743407 -0.0253442 0
0.00612942 -0.0247098 0
0.00714315 -0.0253998 0
0.00759951 -0.0253289 0
0.00657452 -0.0251242 0
0.00742489 -0.025427 0
0 0 0
0.00687668 -0.0253727 0
0.00614904 -0.0248802 0
0.00741158 -0.0255431 0
0.00794144 -0.0238041 0
0.00585476 -0.0247306 0
0.00737579 -0.0201151 0
0.00616813 -0.0250493 0
0.00769853 -0.0254476 0
0.00739773 -0.0256595 0
0.00586501 -0.0248154 0
0.0071014 -0.025696 0
0.00594207 -0.0147519 0
0.00661193 -0.0254866 0
0.00587821 -0.0249258 0
0.00788643 -0.0250159 0
0.00724398 -0.0257685 0
0.00641335 -0.0254092 0
0.0073778 -0.02582 0
0.00619285 -0.0252732 0
0.00753382 -0.025782 0
0.00589543 -0.025072 0
0.00752771 -0.0258358 0
0.00751851 -0.0259153 0
0.00735686 -0.0259812 0
0.00692938 -0.0259288 0
0.00621669 -0.0254952 0
0.00679181 -0.0258796 0
0.00591797 -0.025267 0
0.00782274 -0.0255467 0
0.00750476 -0.0260308 0
0.00704151 -0.0260842 0
0.00665609 -0.0259427 0
0.00732693 -0.0261997 0
0.00594719 -0.0255266 0
0.00624675 -0.0257845 0
0.0074843 -0.0261958 0
0.00715689 -0.0263573 0
0.00790003 -0.0254622 0
0.00794027 -0.0249314 0
0.00773318 -0.0260715 0
0.00648518 -0.0261379 0
0.00729513 -0.0264192 0
0.0079466 -0.0243537 0
0.0056513 -0.0255312 0
0.00745393 -0.0264278 0
0.00627534 -0.0260706 0
0.0056567 -0.0255774 0
0.00598444 -0.0258699 0
0.00697542 -0.0264756 0
0.00566204 -0.0256234 0
0.00669632 -0.0263922 0
0.00566884 -0.0256823 0
0.00567555 -0.0257408 0
0.00568427 -0.0258174 0
0.00758013 -0.0265361 0
0.00725007 -0.0267116 0
0.0075768 -0.026563 0
0.00757344 -0.0265898 0
0.00569285 -0.0258935 0
0.00756843 -0.0266294 0
0.00740882 -0.0267485 0
0.0063102 -0.0264366 0
0.00756336 -0.0266691 0
0.00570409 -0.0259941 0
0.00755589 -0.0267266 0
0.00603065 -0.0263179 0
0.00571512 -0.0260941 0
0.0075483 -0.0267842 0
0.00753726 -0.0268663 0
0.00790676 -0.0259282 0
0.00720171 -0.0270057 0
0.00572956 -0.0262268 0
0.00688235 -0.0269792 0
0.00674107 -0.0269449 0
0.00752597 -0.0269486 0
0.00634268 -0.0267978 0
0.00574365 -0.0263584 0
0.00702286 -0.0271335 0
0.00768236 -0.0268224 0
0.00750974 -0.027064 0
0.00656287 -0.0270401 0
0.00734175 -0.0271845 0
0.00576193 -0.0265324 0
0.00775706 -0.0267892 0
0.00749302 -0.0271796 0
0.00793811 -0.0248893 0
0.00608589 -0.0268931 0
0.00589505 -0.0151719 0
0.00577963 -0.0267049 0
0.00713393 -0.0273903 0
0.00784813 -0.0265953 0
0.00746922 -0.0273389 0
0.0063806 -0.0272504 0
0.00538139 -0.0265091 0
0.00677978 -0.0274874 0
0.0058022 -0.0269306 0
0.00539286 -0.0266106 0
0.0074445 -0.0274986 0
0.00790512 -0.0263874 0
0.00540692 -0.0267367 0
0.00761285 -0.0274022 0
0.0076055 -0.0274556 0
0.00582384 -0.0271541 0
0.00706069 -0.0277775 0
0.00724195 -0.0277673 0
0.00542451 -0.0268974 0
0.00759448 -0.0275344 0
0.00740963 -0.0277149 0
0.00641479 -0.0276955 0
0.00757812 -0.0276488 0
0.00793165 -0.0259523 0
0.00614863 -0.0276169 0
0.00544671 -0.0271048 0
0.00585075 -0.0274427 0
0.00737308 -0.0279319 0
0.00755399 -0.0278122 0
0.00731183 -0.021163 0
0.00681912 -0.0281387 0
0.00776387 -0.0274909 0
0.00547466 -0.0273744 0
0.0066388 -0.0281285 0
0.0079175 -0.0254194 0
0.00587618 -0.0277277 0
0.00695949 -0.0282746 0
0.00751861 -0.0280415 0
0.00732204 -0.0282204 0
0.00789541 -0.0268692 0
0.00645236 -0.028241 0
0.00550939 -0.0277239 0
0 0 0
0.00590679 -0.0280898 0
0.00709379 -0.0285328 0
0.0050881 -0.0275024 0
0.0074669 -0.0283581 0
0.00726806 -0.0285101 0
0.00509425 -0.0275584 0
0.00510032 -0.0276141 0
0.00340469 -0.00834501 0
0.00762273 -0.0282449 0
0.00510767 -0.0276821 0
0.00621504 -0.0285072 0
0.00761887 -0.0282714 0
0.00761499 -0.0282979 0
0.00511492 -0.0277497 0
0.00684983 -0.0287751 0
0.00760921 -0.0283371 0
0.00555154 -0.0281733 0
0.00593506 -0.0284465 0
0.00512391 -0.0278344 0
0.00760337 -0.0283762 0
0.00648439 -0.0287755 0
0.00759481 -0.028433 0
0.00513275 -0.0279187 0
0.00758613 -0.0284898 0
0.0071935 -0.0288884 0
0.0051439 -0.0280262 0
0.00739147 -0.0287874 0
0.00757355 -0.0285709 0
0.00783199 -0.0277426 0
0.00581172 -0.0155861 0
0.00515482 -0.028133 0
0.0078774 -0.0273429 0
0.00756074 -0.028652 0
0.00788772 -0.0259337 0
0.00516868 -0.0282708 0
0.0075424 -0.0287656 0
0.00596765 -0.028891 0
0.00775246 -0.0282807 0
0.00769192 -0.0284843 0
0.00518218 -0.0284074 0
0.00752361 -0.0288794 0
0.0056009 -0.0287434 0
0.00711408 -0.0292683 0
0.00519925 -0.0285841 0
0.00670124 -0.029405 0
0.00749703 -0.0290361 0
0.0065163 -0.0294152 0
0.0078842 -0.0269462 0
0.00728166 -0.0293596 0
0.00687567 -0.02952 0
0.00521575 -0.0287592 0
0.00746959 -0.029193 0
0.00599673 -0.0293274 0
0.0062782 -0.0295749 0
0.00523636 -0.0289845 0
0.00743119 -0.0294052 0
0.00700585 -0.0297551 0
0.00784967 -0.0278415 0
0.00471645 -0.028688 0
0.00565586 -0.029454 0
0.00760954 -0.0291854 0
0.00525604 -0.0292074 0
0.00472967 -0.028812 0
0.0076014 -0.0292379 0
0.00739124 -0.0296178 0
0.00758921 -0.0293154 0
0.00784458 -0.0264417 0
0.00474506 -0.0289589 0
0.0060282 -0.0298599 0
0.00654047 -0.0300393 0
0.00757116 -0.0294278 0
0.00528014 -0.0294916 0
0.0047634 -0.0291377 0
0.00733593 -0.0299002 0
0.00712237 -0.0301084 0
0.00754469 -0.0295882 0
0.00772189 -0.0290476 0
0.00689004 -0.0302442 0
0.00478557 -0.0293599 0
0.00530279 -0.0297721 0
0.00750614 -0.029813 0
0.00727796 -0.0301832 0
0.00605463 -0.0303807 0
0.00481248 -0.0296394 0
0.00781375 -0.0283302 0
0.00571279 -0.0303211 0
0.00532967 -0.0301249 0
0.00745028 -0.0301228 0
0.00571629 -0.0159785 0
0.00717118 -0.0221538 0
0.00655968 -0.0307679 0
0.00719862 -0.0305521 0
0.00776354 -0.028981 0
0.00484493 -0.0299926 0
0.00632788 -0.0308209 0
0.00673492 -0.0308584 0
0.00779489 -0.0269337 0
0.00535437 -0.0304721 0
0.00736968 -0.0305421 0
0.00608035 -0.0310018 0
0.00757115 -0.0300928 0
0.00432163 -0.0298878 0
0.007567 -0.0301188 0
0.00756283 -0.0301448 0
0.00711489 -0.030922 0
0.00780071 -0.0279119 0
0.00432879 -0.0299566 0
0.00689302 -0.0310701 0
0.00755664 -0.0301831 0
0.00488334 -0.0304378 0
0.00755039 -0.0302215 0
0.00433585 -0.0300251 0
0.00754124 -0.0302771 0
0.00434397 -0.0301048 0
0.00753198 -0.0303327 0
0.00538246 -0.0309015 0
0.00435197 -0.030184 0
0.00751859 -0.030412 0
0.00436141 -0.0302787 0
0.00750498 -0.0304914 0
0.00776618 -0.0288448 0
0.00437069 -0.0303729 0
0.00766628 -0.0298897 0
0.00656876 -0.0314752 0
0.00748555 -0.0306025 0
0.00576555 -0.0313543 0
0.00438188 -0.0304882 0
0.00725382 -0.0310993 0
0.0074657 -0.0307136 0
0.00700183 -0.0313949 0
0.00492739 -0.0309939 0
0.00439282 -0.0306028 0
0.00540735 -0.0313228 0
0.0060992 -0.0316067 0
0.00760622 -0.0302692 0
0 0 0
0.0074377 -0.0308665 0
0.00440619 -0.0307453 0
0.00773216 -0.0274177 0
0.0074089 -0.0310195 0
0.00441918 -0.0308867 0
0.00443512 -0.0310643 0
0.00736876 -0.0312262 0
0.00688191 -0.0318689 0
0.00543391 -0.0318337 0
0.00445049 -0.0312403 0
0.00497554 -0.0316787 0
0.00732719 -0.031433 0
0.0070881 -0.0318261 0
0.00635093 -0.0322334 0
0.00771056 -0.0293476 0
0.00446922 -0.0314616 0
0.00611316 -0.0323109 0
0.00656718 -0.0322802 0
0.00559039 -0.0163566 0
0.00726991 -0.0317073 0
0.00750223 -0.0310751 0
0.00448709 -0.0316807 0
0.0074938 -0.0311264 0
0.00545598 -0.0323329 0
0.0074812 -0.0312021 0
0.00384206 -0.0312832 0
0.00672261 -0.0324629 0
0.00580534 -0.0325534 0
0.00746257 -0.0313119 0
0.00721016 -0.0319818 0
0.00450852 -0.031955 0
0.00385751 -0.0314355 0
0.00759058 -0.0307007 0
0.00766382 -0.0278863 0
0.00743532 -0.0314684 0
0.00387463 -0.0316079 0
0.00768345 -0.0288478 0
0.0050246 -0.0325067 0
0.00763265 -0.0302925 0
0.00452865 -0.0322258 0
0.00739575 -0.0316875 0
0.00712883 -0.032339 0
0.00389401 -0.031808 0
0.00611831 -0.0329936 0
0.00685286 -0.0327556 0