# vtk DataFile Version 3.0
File generated from DClib
ASCII

DATASET UNSTRUCTURED_GRID
POINTS 1909 float
50 0 0 
48.75 0 0 
50 1.66667 0 
47.5 0 0 
50 3.33333 0 
46.25 0 0 
50 5 0 
45 0 0 
43.75 0 0 
50 6.66667 0 
43 2 0 
42.5 0 0 
50 8.33333 0 
43 4.66667 0 
41.25 0 0 
41.075 2 0 
50 10 0 
40 0 0 
43 7.33333 0 
39.15 2 0 
38.75 0 0 
43 10 0 
37.5 0 0 
37.225 2 0 
36.25 0 0 
36 4 0 
35.3 2 0 
36 5 0 
35 0 0 
35.325 4 0 
36 6 0 
36 7 0 
34.65 4 0 
36 8 0 
33.75 0 0 
33.975 4 0 
36 9 0 
33.375 2 0 
33.3 4 0 
36 10 0 
32.5 0 0 
32.625 4 0 
33 6 0 
31.95 4 0 
33 7.45455 0 
31.45 2 0 
31.25 0 0 
31.95 6 0 
33 8.79545 0 
31.275 4 0 
33 10 0 
30.6 4 0 
30 0 0 
30.9 6 0 
29.925 4 0 
29.525 2 0 
29.85 6 0 
29.25 4 0 
28.75 0 0 
30 8 0 
30 8.45455 0 
28.575 4 0 
29.625 8 0 
30 8.90909 0 
28.8 6 0 
30 9.25 0 
29.782 8.90909 0 
30 9.59091 0 
29.9487 9.59091 0 
29.25 8 0 
29.7462 9.25 0 
30 9.79545 0 
29.897 9.59091 0 
29.564 8.90909 0 
29.9547 9.79545 0 
29.3462 8.45455 0 
29.84 9.59091 0 
30 10 0 
29.8975 9.79545 0 
29.9882 10 0 
29.9902 10.0098 0 
29.7827 9.59091 0 
29.9765 10 0 
29.9804 10.0196 0 
29.9667 10.0098 0 
29.9591 10 0 
29.9686 10.0196 0 
29.9659 10.0341 0 
29.9569 10.0196 0 
29.9418 10 0 
29.9395 10.0196 0 
29.9515 10.0485 0 
29.932 10.0098 0 
29.9424 10.0341 0 
29.8241 9.79545 0 
29.7181 9.59091 0 
29.9166 10 0 
29.9397 10.0485 0 
29.9222 10.0196 0 
29.9279 10.0485 0 
29.9305 10.0695 0 
29.8914 10 0 
29.9077 10.0341 0 
27.9 4 0 
29.897 10.0196 0 
29.9106 10.0485 0 
29.8817 10.0098 0 
29.907 10.0695 0 
29.8933 10.0485 0 
29.9095 10.0905 0 
29.8719 10.0196 0 
27.6 2 0 
29.8556 10 0 
29.8978 10.0905 0 
29.6531 9.59091 0 
29.3437 8.90909 0 
27.5 0 0 
29.8681 10.0485 0 
29.886 10.0905 0 
29.8574 10.0341 0 
29.4839 9.25 0 
29.8723 10.0695 0 
29.7289 9.79545 0 
29.836 10.0196 0 
29.8687 10.0905 0 
29.8197 10 0 
29.8797 10.1203 0 
29.843 10.0485 0 
29.8513 10.0905 0 
29.81 10.0098 0 
29.8561 10.1203 0 
29.8002 10.0196 0 
29.8221 10.0695 0 
29.8072 10.0485 0 
29.8262 10.0905 0 
29.5782 9.59091 0 
29.8498 10.1502 0 
29.7695 10 0 
29.7858 10.0341 0 
29.838 10.1502 0 
29.8215 10.1203 0 
29.8011 10.0905 0 
29.8262 10.1502 0 
29.7714 10.0485 0 
28.875 8 0 
29.75 10.0196 0 
29.8089 10.1502 0 
29.7654 10.0905 0 
29.7193 10 0 
29.7916 10.1502 0 
29.7505 10.0695 0 
29.8079 10.1921 0 
29.7713 10.1203 0 
29.7096 10.0098 0 
29.6047 9.79545 0 
29.503 9.59091 0 
29.7213 10.0485 0 
29.7665 10.1502 0 
29.6999 10.0196 0 
29.7844 10.1921 0 
29.7296 10.0905 0 
29.6856 10.0341 0 
29.7414 10.1502 0 
29.7497 10.1921 0 
29.6503 10 0 
29.7661 10.2339 0 
29.6712 10.0485 0 
29.6999 10.1203 0 
29.7543 10.2339 0 
29.6796 10.0905 0 
29.7057 10.1502 0 
29.7425 10.2339 0 
29.1235 8.90909 0 
29.6309 10.0196 0 
29.6504 10.0695 0 
29.4146 9.59091 0 
29.7252 10.2339 0 
29.6996 10.1921 0 
29.6701 10.1502 0 
29.7079 10.2339 0 
29.6296 10.0905 0 
29.5813 10 0 
29.6023 10.0485 0 
29.5716 10.0098 0 
29.6828 10.2339 0 
29.7086 10.2914 0 
29.2101 9.25 0 
29.562 10.0196 0 
29.6201 10.1502 0 
29.6578 10.2339 0 
29.4428 9.79545 0 
29.5999 10.1203 0 
29.6849 10.2914 0 
29.6283 10.1921 0 
29.5477 10.0341 0 
29.3259 9.59091 0 
29.5608 10.0905 0 
29.5335 10.0485 0 
29.6221 10.2339 0 
29.6503 10.2914 0 
29.5702 10.1502 0 
29.4881 10 0 
29.5128 10.0695 0 
29.6511 10.3489 0 
29.5866 10.2339 0 
29.6392 10.3489 0 
29.4689 10.0196 0 
29.6002 10.2914 0 
29.6273 10.3489 0 
29.4921 10.0905 0 
29.61 10.3489 0 
29.5286 10.1921 0 
29.5016 10.1502 0 
29.5368 10.2339 0 
29.5926 10.3489 0 
29.4405 10.0485 0 
29.2199 9.59091 0 
29.4626 10.1203 0 
29.3949 10 0 
28.9 8.90909 0 
29.5676 10.3489 0 
29.5291 10.2914 0 
29.3853 10.0098 0 
28.6923 8.45455 0 
29.487 10.2339 0 
29.5426 10.3489 0 
29.3758 10.0196 0 
29.5734 10.4266 0 
29.4331 10.1502 0 
29.3993 10.0905 0 
28.5 8 0 
29.3617 10.0341 0 
29.5496 10.4266 0 
29.5071 10.3489 0 
29.2327 9.79545 0 
29.3475 10.0485 0 
29.1136 9.59091 0 
29.4187 10.2339 0 
29.5148 10.4266 0 
29.4716 10.3489 0 
29.3918 10.1921 0 
29.3271 10.0695 0 
29.4298 10.2914 0 
29.2714 10 0 
29.3406 10.1502 0 
28.9208 9.25 0 
29.3066 10.0905 0 
29.4648 10.4266 0 
29.422 10.3489 0 
29.4958 10.5042 0 
29.2524 10.0196 0 
27.75 6 0 
29.3504 10.2339 0 
29.4837 10.5042 0 
29.4718 10.5042 0 
29.2774 10.1203 0 
29.4543 10.5042 0 
29.3724 10.3489 0 
29.2244 10.0485 0 
29.4369 10.5042 0 
29.3938 10.4266 0 
28.9853 9.59091 0 
29.2481 10.1502 0 
28.6766 8.90909 0 
29.4119 10.5042 0 
29.2934 10.2914 0 
27.225 4 0 
29.148 10 0 
29.2582 10.2339 0 
29.1837 10.0905 0 
29.3869 10.5042 0 
29.1385 10.0098 0 
29.3044 10.3489 0 
29.1291 10.0196 0 
29.2072 10.1921 0 
29.3514 10.5042 0 
29.1152 10.0341 0 
29.3929 10.6071 0 
29.2949 10.4266 0 
29.1013 10.0485 0 
29.3686 10.6071 0 
29.316 10.5042 0 
29.2364 10.3489 0 
28.9623 9.79545 0 
29.1257 10.1502 0 
29.1662 10.2339 0 
29.0811 10.0695 0 
28.8566 9.59091 0 
29.3336 10.6071 0 
29.2666 10.5042 0 
29.0609 10.0905 0 
28.9875 10 0 
29.2835 10.6071 0 
29.1448 10.3489 0 
29.0321 10.1203 0 
29.2173 10.5042 0 
29.1098 10.2914 0 
28.125 8 0 
28.9688 10.0196 0 
29.1594 10.4266 0 
28.611 9.25 0 
29.29 10.71 0 
28.4486 8.90909 0 
29.0443 10.2339 0 
29.0033 10.1502 0 
29.2777 10.71 0 
28.9413 10.0485 0 
29.2128 10.6071 0 
29.2655 10.71 0 
29.1497 10.5042 0 
29.2478 10.71 0 
28.7003 9.59091 0 
29.0533 10.3489 0 
29.2303 10.71 0 
28.9629 10.1921 0 
28.9013 10.0905 0 
29.2051 10.71 0 
29.0822 10.5042 0 
29.1801 10.71 0 
28.827 10 0 
29.1144 10.6071 0 
28.8177 10.0098 0 
28.9225 10.2339 0 
28.8085 10.0196 0 
29.1447 10.71 0 
28.7949 10.0341 0 
28.8443 10.1502 0 
28.977 10.4266 0 
28.9322 10.3489 0 
29.1094 10.71 0 
28.7813 10.0485 0 
28.9912 10.5042 0 
29.1562 10.8438 0 
28.5436 9.59091 0 
28.7615 10.0695 0 
28.8669 10.2914 0 
29.1313 10.8438 0 
28.6184 9.79545 0 
29.0602 10.71 0 
28.2207 8.90909 0 
28.7418 10.0905 0 
28.0378 8.45455 0 
28.9798 10.6071 0 
29.0958 10.8438 0 
29.0112 10.71 0 
28.9005 10.5042 0 
28.7136 10.1203 0 
28.7644 10.2339 0 
28.8113 10.3489 0 
29.0454 10.8438 0 
28.6223 10 0 
28.6854 10.1502 0 
28.2746 9.25 0 
28.9441 10.71 0 
28.6042 10.0196 0 
27.75 8 0 
28.9747 10.8438 0 
28.6459 10.1921 0 
28.5773 10.0485 0 
29.0225 10.9775 0 
28.3532 9.59091 0 
28.7804 10.5042 0 
28.736 10.4266 0 
28.8772 10.71 0 
29.0097 10.9775 0 
28.9971 10.9775 0 
28.799 10.6071 0 
28.9791 10.9775 0 
28.5384 10.0905 0 
28.6064 10.2339 0 
28.6543 10.3489 0 
28.9611 10.9775 0 
28.8769 10.8438 0 
27.9867 8.90909 0 
26.25 0 0 
28.9358 10.9775 0 
28.7871 10.71 0 
28.9106 10.9775 0 
28.6607 10.5042 0 
28.4177 10 0 
26.55 4 0 
28.552 10.2914 0 
28.483 10.1502 0 
28.4087 10.0098 0 
28.8751 10.9775 0 
28.3998 10.0196 0 
28.3866 10.0341 0 
28.8399 10.9775 0 
28.6974 10.71 0 
28.3735 10.0485 0 
28.1625 9.59091 0 
28.7436 10.8438 0 
28.4976 10.3489 0 
28.3543 10.0695 0 
28.791 10.9775 0 
28.4052 10.2339 0 
28.3352 10.0905 0 
28.8519 11.1481 0 
28.1869 9.79545 0 
28.5607 10.6071 0 
28.5053 10.5042 0 
28.7423 10.9775 0 
28.8258 11.1481 0 
28.308 10.1203 0 
28.5787 10.71 0 
27.904 9.25 0 
28.7893 11.1481 0 
28.424 10.4266 0 
27.7528 8.90909 0 
28.2807 10.1502 0 
28.6758 10.9775 0 
27.375 8 0 
28.7383 11.1481 0 
28.1619 10 0 
28.5649 10.8438 0 
28.2425 10.1921 0 
28.6096 10.9775 0 
28.1444 10.0196 0 
28.298 10.3489 0 
28.4605 10.71 0 
26.7 6 0 
27.9315 9.59091 0 
28.3503 10.5042 0 
28.6676 11.1481 0 
28.1187 10.0485 0 
28.2042 10.2339 0 
28.5207 10.9775 0 
28.0813 10.0905 0 
28.6814 11.3186 0 
27.3818 8.45455 0 
28.6679 11.3186 0 
28.1516 10.2914 0 
28.5703 11.1481 0 
28.6544 11.3186 0 
28.6358 11.3186 0 
27.5109 8.90909 0 
28.3072 10.71 0 
28.6173 11.3186 0 
28.2524 10.6071 0 
28.4322 10.9775 0 
28.028 10.1502 0 
28.5915 11.3186 0 
28.0989 10.3489 0 
28.33 10.8438 0 
28.5658 11.3186 0 
28.153 10.5042 0 
27.9061 10 0 
27.8975 10.0098 0 
28.5303 11.3186 0 
28.4384 11.1481 0 
27.7002 9.59091 0 
27.889 10.0196 0 
27.8765 10.0341 0 
28.4949 11.3186 0 
28.3154 10.9775 0 
27.9532 10.2339 0 
27.8639 10.0485 0 
28.0276 10.4266 0 
28.1544 10.71 0 
27.8457 10.0695 0 
27.4909 9.25 0 
28.4463 11.3186 0 
27 8 0 
27.8275 10.0905 0 
28.3979 11.3186 0 
27.8015 10.1203 0 
27.6542 9.79545 0 
25.675 2 0 
28.1991 10.9775 0 
27.2691 8.90909 0 
27.9563 10.5042 0 
28.4682 11.5318 0 
28.2625 11.1481 0 
27.7755 10.1502 0 
28.3322 11.3186 0 
27.8502 10.3489 0 
28.4401 11.5318 0 
25.875 4 0 
27.7391 10.1921 0 
28.4019 11.5318 0 
28.0268 10.8438 0 
28.2668 11.3186 0 
27.9602 10.71 0 
28.3498 11.5318 0 
27.4223 9.59091 0 
27.7026 10.2339 0 
27.5927 10 0 
28.0486 10.9775 0 
27.8616 10.6071 0 
27.5762 10.0196 0 
28.1794 11.3186 0 
28.2786 11.5318 0 
27.5519 10.0485 0 
27.6524 10.2914 0 
28.0319 11.1481 0 
27.7108 10.5042 0 
27.5167 10.0905 0 
27.0169 8.90909 0 
28.0924 11.3186 0 
27.6021 10.3489 0 
27.8988 10.9775 0 
28.1818 11.5318 0 
27.7667 10.71 0 
26.625 8 0 
28.255 11.745 0 
27.4664 10.1502 0 
28.2402 11.745 0 
28.2256 11.745 0 
28.2059 11.745 0 
27.978 11.3186 0 
26.7234 8.45455 0 
27.0259 9.25 0 
27.5342 10.4266 0 
28.1863 11.745 0 
27.1442 9.59091 0 
28.0516 11.5318 0 
28.1598 11.745 0 
27.3959 10.2339 0 
28.1334 11.745 0 
27.2793 10 0 
27.2714 10.0098 0 
27.2635 10.0196 0 
27.7086 10.9775 0 
27.6431 10.8438 0 
28.0975 11.745 0 
27.8643 11.3186 0 
27.4661 10.5042 0 
27.2518 10.0341 0 
27.2401 10.0485 0 
28.0617 11.745 0 
26.7648 8.90909 0 
27.5255 10.71 0 
27.7353 11.1481 0 
27.2231 10.0695 0 
28.0133 11.745 0 
27.2061 10.0905 0 
27.8791 11.5318 0 
27.2986 10.3489 0 
27.1818 10.1203 0 
27.9651 11.745 0 
27.3758 10.6071 0 
27.0077 9.79545 0 
27.7174 11.3186 0 
27.1576 10.1502 0 
25 0 0 
27.5193 10.9775 0 
27.9003 11.745 0 
27.1236 10.1921 0 
26.25 8 0 
27.9939 12.0061 0 
25.65 6 0 
27.8359 11.745 0 
26.8136 9.59091 0 
27.0896 10.2339 0 
27.9626 12.0061 0 
27.2853 10.71 0 
25.2 4 0 
27.5713 11.3186 0 
27.9218 12.0061 0 
26.4998 8.90909 0 
27.167 10.5042 0 
27.6541 11.5318 0 
27.0427 10.2914 0 
27.7503 11.745 0 
26.9033 10 0 
27.8677 12.0061 0 
26.8882 10.0196 0 
26.8659 10.0485 0 
26.9958 10.3489 0 
27.2836 10.9775 0 
27.6652 11.745 0 
27.3609 11.1481 0 
27.7955 12.0061 0 
26.499 9.25 0 
[...]
POINT_DATA 1909
SCALARS phi float 1
LOOKUP_TABLE default
VECTORS Displacement float
0 0 0
0 0 0
0 -0.000144467 0
0 0 0
0 -0.000197015 0
0 0 0
0 -0.000165424 0
0 0 0
0 0 0
0 -5.92667e-05 0
0.000426714 -0.00013205 0
0 0 0
0 0.000117056 0
0.000836302 -8.10636e-05 0
0 0 0
0.000572612 -0.000130558 0
0 0.000354728 0
0 0 0
0.00111978 0.000187748 0
0.00073124 -0.000132774 0
0 0 0
0.0012886 0.000608735 0
0 0 0
0.000899335 -0.000141558 0
0 0 0
0.00171888 -0.000100788 0
0.00106813 -0.000156897 0
0.00204642 -4.04313e-06 0
0 0 0
0.00183946 -0.000109282 0
0.00229534 0.000131558 0
0.0024748 0.000297529 0
0.00195669 -0.000119542 0
0.00260112 0.000481053 0
0 0 0
0.00207254 -0.000135829 0
0.00267968 0.00067483 0
0.00122807 -0.000177939 0
0.0021846 -0.000154248 0
0.00271841 0.000869008 0
0 0 0
0.00229071 -0.000176215 0
0.00296737 4.37125e-05 0
0.00239163 -0.000200302 0
0.00329618 0.00030122 0
0.00137046 -0.000203868 0
0 0 0
0.00319347 -4.88306e-05 0
0.0034699 0.000613518 0
0.00248511 -0.000226972 0
0.00347468 0.000947035 0
0.00257173 -0.00025565 0
0 0 0
0.00338202 -0.000140853 0
0.00265044 -0.000286487 0
0.00148769 -0.000234174 0
0.00354219 -0.000239239 0
0.00272085 -0.000319341 0
0 0 0
0.0041475 -2.8816e-05 0
0.0042634 4.23119e-05 0
0.002783 -0.000354011 0
0.0042198 -9.23401e-05 0
0.00437706 0.000123962 0
0.00367459 -0.000345877 0
0.00445011 0.000200382 0
0.00443007 7.44207e-05 0
0.00451308 0.000291552 0
0.00452972 0.000267658 0
0.0042839 -0.000156273 0
0.00451582 0.00012841 0
0.00454817 0.00035455 0
0.0045445 0.000245531 0
0.00447839 2.40519e-05 0
0.00456303 0.000321876 0
0.00439827 -8.64331e-05 0
0.00455894 0.000223305 0
0.00455821 0.000429345 0
0.00458016 0.000290256 0
0.00456554 0.000417777 0
0.00459516 0.000426835 0
0.00457288 0.000203327 0
0.00457317 0.000408015 0
0.00461615 0.000418708 0
0.00459732 0.000405188 0
0.00458396 0.000396155 0
0.00461679 0.000409428 0
0.00464232 0.00040795 0
0.00461942 0.000401416 0
0.00459474 0.000385528 0
0.00462446 0.000391824 0
0.00466607 0.000400505 0
0.00461347 0.000384281 0
0.00464521 0.000395935 0
0.00460254 0.000260387 0
0.00458806 0.000183147 0
0.00460958 0.000371256 0
0.00466719 0.000395825 0
0.00463089 0.000382341 0
0.00466877 0.000390892 0
0.00469753 0.000392421 0
0.00462381 0.0003582 0
0.0046545 0.00037894 0
0.0028357 -0.000390924 0
0.00464146 0.00036907 0
0.00467221 0.000383111 0
0.00463828 0.000357581 0
0.00469941 0.000383635 0
0.00467637 0.000375076 0
0.0047253 0.000384706 0
0.00465233 0.000356544 0
0.00157282 -0.000268588 0
0.00464246 0.000340982 0
0.00472585 0.000380686 0
0.00460365 0.000164701 0
0.00452409 -2.5693e-05 0
0 0 0
0.00468348 0.000363271 0
0.00472678 0.000376386 0
0.00467229 0.000354429 0
0.00457421 5.98691e-05 0
0.00470514 0.000369047 0
0.00463201 0.000230076 0
0.00466769 0.000339721 0
0.00472875 0.000369709 0
0.00465983 0.000325084 0
0.00476031 0.000374189 0
0.00469123 0.000351765 0
0.00473132 0.000362784 0
0.00467123 0.000324729 0
0.00476152 0.000366353 0
0.00468251 0.000324117 0
0.00471702 0.000347318 0
0.00470287 0.000335932 0
0.00473585 0.000352597 0
0.00462163 0.000144835 0
0.00479176 0.000364162 0
0.00468165 0.000305039 0
0.00469879 0.000322748 0
0.00479219 0.000360512 0
0.00476505 0.000353869 0
0.00474108 0.000342402 0
0.00479281 0.00035674 0
0.00471465 0.000320975 0
0.00434617 -0.000221874 0
0.00470175 0.000304006 0
0.00479408 0.000350981 0
0.00474935 0.000328069 0
0.00470159 0.000286018 0
0.00479571 0.000345058 0
0.00473686 0.000317835 0
0.00483137 0.000350815 0
0.00477279 0.000335029 0
0.00471079 0.000285635 0
0.00466918 0.000195507 0
0.00464012 0.000125618 0
0.00473077 0.000301265 0
0.00479862 0.00033628 0
0.00471995 0.000285104 0
0.00483221 0.00034383 0
0.00475811 0.000314172 0
0.00473325 0.000284014 0
0.00480205 0.000327375 0
0.00483449 0.000332959 0
0.00472596 0.000262485 0
0.00486696 0.000338122 0
0.00474641 0.000282652 0
0.00478683 0.000308344 0
0.00486729 0.00033482 0
0.00477075 0.00029536 0
0.00480766 0.000314637 0
0.00486773 0.000331444 0
0.00456679 -7.47406e-05 0
0.00474235 0.000261257 0
0.00476515 0.000280216 0
0.00466149 0.000103483 0
0.00486858 0.000326342 0
0.0048395 0.000316491 0
0.00481383 0.00030197 0
0.00486964 0.000321121 0
0.00478344 0.000277342 0
0.00474807 0.000239454 0
0.00476644 0.000258689 0
0.00475572 0.000238849 0
0.00487153 0.000313382 0
0.00491104 0.000321406 0
0.00463215 -5.95624e-06 0
0.00476337 0.000238156 0
0.00482313 0.000284435 0
0.00487377 0.000305493 0
0.00471408 0.000152291 0
0.00480864 0.000272608 0
0.00491167 0.000314976 0
0.00484903 0.000292506 0
0.00477444 0.000236954 0
0.00468302 8.12782e-05 0
0.00480042 0.000253584 0
0.00478546 0.000235576 0
0.00487748 0.000294086 0
0.00491319 0.000305139 0
0.00483279 0.000267272 0
0.00477476 0.000210607 0
0.00480129 0.000233253 0
0.00495052 0.000305217 0
0.00488167 0.000282556 0
0.00495077 0.0003021 0
0.00478853 0.000208919 0
0.00491645 0.000290295 0
0.00495109 0.000298938 0
0.0048169 0.000230608 0
0.00495169 0.000294204 0
0.0048649 0.000259049 0
0.00484633 0.00024412 0
0.00488815 0.000266333 0
0.0049524 0.000289384 0
0.00480886 0.000205944 0
0.0047077 5.45358e-05 0
0.00483867 0.000226309 0
0.00479903 0.000181711 0
0.0046076 -0.000124096 0
0.00495365 0.000282267 0
0.00492277 0.000268393 0
0.00480555 0.000180792 0
0.0045107 -0.000214197 0
0.00489512 0.000250113 0
0.00495511 0.000275013 0
0.00481205 0.000179818 0
0.0049982 0.000283847 0
0.00485983 0.000221489 0
0.00483781 0.000200683 0
0.0044019 -0.000289476 0
0.00482148 0.000178275 0
0.00499868 0.000277616 0
0.00495755 0.000264486 0
0.0047664 9.55872e-05 0
0.00483086 0.000176617 0
0.00473199 2.73022e-05 0
0.00490524 0.000227842 0
0.00499973 0.000268232 0
0.00496032 0.000253774 0
0.00488839 0.00021398 0
0.00484438 0.000173997 0
0.00493378 0.000237016 0
0.00482816 0.000144732 0
0.0048776 0.000191502 0
0.00468987 -7.49754e-05 0
0.00485774 0.000171153 0
0.00500189 0.0002542 0
0.00496468 0.000238554 0
0.00504048 0.00026265 0
0.00483998 0.000142462 0
0.00377711 -0.00046069 0
0.00491565 0.000205726 0
0.00504068 0.000259536 0
0.00504093 0.000256396 0
0.0048765 0.000166709 0
0.00504135 0.000251745 0
0.00496949 0.000223139 0
0.00485737 0.000138786 0
0.00504185 0.000247036 0
0.00500603 0.000233491 0
0.00475966 -6.17188e-06 0
0.00489487 0.000161862 0
0.00464603 -0.000174182 0
0.00504269 0.000240132 0
0.00495109 0.000193411 0
0.00287965 -0.000429172 0
0.0048548 0.000107269 0
0.00492988 0.000175968 0
0.0048822 0.000132799 0
0.00504366 0.000233119 0
0.0048604 0.000106019 0
0.00497665 0.00020172 0
0.00486597 0.000104731 0
0.00491989 0.000154435 0
0.00504526 0.000222969 0
0.00487409 0.000102765 0
0.00508983 0.000234506 0
0.00501342 0.000203504 0
0.00488216 0.00010072 0
0.00509023 0.000228106 0
0.00504708 0.000212642 0
0.00498422 0.000180147 0
0.00482538 2.0238e-05 0
0.00491658 0.000123025 0
0.00494403 0.000146357 0
0.00489377 9.76077e-05 0
0.00478624 -4.03663e-05 0
0.00509099 0.00021863 0
0.00504996 0.000197937 0
0.00490527 9.4336e-05 0
0.00488643 5.88719e-05 0
0.00509245 0.000204652 0
0.0049949 0.000150795 0
0.00492143 8.9395e-05 0
0.00505316 0.000182981 0
0.00497577 0.00013431 0
0.00445354 -0.000358957 0
0.00489663 5.59969e-05 0
0.00502553 0.000161086 0
0.0047463 -0.000150769 0
0.00513277 0.000205959 0
0.00468244 -0.000226107 0
0.00496235 0.000107185 0
0.00493731 8.4152e-05 0
0.00513294 0.000202665 0
0.00491157 5.15233e-05 0
0.00509517 0.000184205 0
0.00513313 0.000199361 0
0.00505801 0.000162088 0
0.00513345 0.000194535 0
0.00481624 -8.26662e-05 0
0.0050058 0.00012132 0
0.00513381 0.000189674 0
0.00495903 7.63146e-05 0
0.00493289 4.45629e-05 0
0.00513439 0.000182621 0
0.00506324 0.000140885 0
0.00513505 0.000175493 0
0.00491535 9.73288e-06 0
0.00510002 0.000154667 0
0.00492014 8.17002e-06 0
0.00498013 6.79507e-05 0
0.00492491 6.5801e-06 0
0.00513611 0.000165252 0
0.00493188 4.18687e-06 0
0.00496248 3.37195e-05 0
0.00504369 0.000102536 0
0.00502032 8.20031e-05 0
0.00513731 0.00015487 0
0.0049388 1.73579e-06 0
0.00507077 0.00011186 0
0.00518053 0.000168008 0
0.00484436 -0.000125786 0
0.00494875 -1.92248e-06 0
0.00500805 5.56427e-05 0
0.00518086 0.000161072 0
0.00488938 -7.90247e-05 0
0.00513919 0.000140149 0
0.00471593 -0.000279107 0
0.0049586 -5.69923e-06 0
0.00460224 -0.000349399 0
0.00510812 0.00011272 0
0.00518143 0.000151013 0
0.00514127 0.000125201 0
0.00507864 8.25002e-05 0
0.00497245 -1.12861e-05 0
0.0050021 1.68525e-05 0
0.0050347 4.24967e-05 0
0.00518246 0.00013643 0
0.00494889 -5.33152e-05 0
0.00498608 -1.71028e-05 0
0.00480031 -0.000235728 0
0.00514443 0.000104337 0
0.0049576 -5.67704e-05 0
0.00449816 -0.000430311 0
0.00518426 0.000115395 0
0.00500474 -2.56275e-05 0
0.00497034 -6.20402e-05 0
0.00522053 0.000128878 0
0.00487556 -0.00017903 0
0.00508937 4.31261e-05 0
0.00506863 2.35578e-05 0
0.00514787 8.3146e-05 0
0.00522067 0.000125218 0
0.00522083 0.000121559 0
0.00512067 5.43723e-05 0
0.00522108 0.000116318 0
0.0049885 -7.00385e-05 0
0.00502293 -3.45711e-05 0
0.00505284 -9.18746e-06 0
0.00522134 0.000111063 0
0.00518739 8.53246e-05 0
0.0047472 -0.000334402 0
0 0 0
0.00522176 0.000103547 0
0.00515288 5.41051e-05 0
0.00522222 9.5987e-05 0
0.0051002 3.3977e-06 0
0.00497909 -0.000117178 0
0.00291324 -0.000470164 0
0.00504708 -4.75291e-05 0
0.00501369 -8.21438e-05 0
0.00498314 -0.000119029 0
0.00522294 8.52467e-05 0
0.00498717 -0.0001209 0
0.00499307 -0.000123696 0
0.00522372 7.44109e-05 0
0.00515818 2.46497e-05 0
0.00499893 -0.000126537 0
0.00490396 -0.000233097 0
0.00519258 4.28865e-05 0
0.00507025 -6.11965e-05 0
0.00500735 -0.000130736 0
0.00522493 5.91752e-05 0
0.00504751 -0.00010042 0
0.00501568 -0.000135025 0
0.00526171 7.71406e-05 0
0.0049551 -0.000207295 0
0.00513854 -2.49439e-05 0
0.00511415 -4.87694e-05 0
0.00522625 4.37683e-05 0
0.00526199 6.9264e-05 0
0.00502738 -0.000141295 0
0.00516551 -1.49195e-05 0
0.00485068 -0.000331993 0
0.00526244 5.81357e-05 0
0.00509991 -8.07032e-05 0
0.0047751 -0.000390672 0
0.0050389 -0.000147745 0
0.00522823 2.2391e-05 0
0.0045371 -0.000503168 0
0.00526317 4.23403e-05 0
0.00501265 -0.000197699 0
0.00520067 -1.60129e-05 0
0.00505469 -0.000157075 0
0.00523037 7.43198e-07 0
0.00501996 -0.000201696 0
0.00509104 -0.000127892 0
0.00517301 -5.49507e-05 0
0.00384755 -0.000583179 0
0.00493451 -0.000299365 0
0.0051277 -0.000101322 0
0.00526437 1.99563e-05 0
0.00503063 -0.000207725 0
0.00507007 -0.000166741 0
0.00523347 -2.88177e-05 0
0.00504583 -0.000216747 0
0.00529336 2.32109e-05 0
0.00467315 -0.000490894 0
0.00529349 1.89587e-05 0
0.00509055 -0.000180569 0
0.00526633 -1.15677e-05 0
0.00529362 1.47182e-05 0
0.00529382 8.8062e-06 0
0.00480053 -0.000449632 0
0.00518279 -0.000107599 0
0.00529402 2.89603e-06 0
0.00516165 -0.0001302 0
0.00523675 -5.87555e-05 0
0.0050669 -0.00023016 0
0.00529433 -5.38727e-06 0
0.00511023 -0.000194991 0
0.00521236 -9.61107e-05 0
0.00529465 -1.36881e-05 0
0.00514407 -0.000168834 0
0.00504174 -0.000278925 0
0.0050451 -0.000281041 0
0.00529512 -2.53e-05 0
0.00526944 -5.55202e-05 0
0.00496116 -0.000366366 0
0.00504844 -0.000283172 0
0.00505333 -0.000286344 0
0.00529563 -3.69638e-05 0
0.00524127 -9.88933e-05 0
0.00509518 -0.000250003 0
0.00505818 -0.000289551 0
0.00513548 -0.000215365 0
0.00519236 -0.000160702 0
0.00506515 -0.000294264 0
0.00489578 -0.000441795 0
0.00529637 -5.31667e-05 0
0.00456881 -0.000577521 0
0.00507205 -0.000299049 0
0.00529716 -6.94764e-05 0
0.00508173 -0.000305992 0
0.00501698 -0.000369104 0
0.00161917 -0.000306725 0
0.00524589 -0.000139487 0
0.00482237 -0.000509335 0
0.00515922 -0.000236718 0
0.00532093 -4.73401e-05 0
0.00527416 -0.000115966 0
0.00509125 -0.000313079 0
0.00529831 -9.18913e-05 0
0.00513162 -0.000279218 0
0.00532118 -5.66883e-05 0
0.0029374 -0.000511664 0
0.00510429 -0.000323241 0
0.00532153 -6.94612e-05 0
0.00522761 -0.000202524 0
0.00529951 -0.00011449 0
0.00520398 -0.000228992 0
0.00532205 -8.71132e-05 0
0.00498824 -0.000447537 0
0.00511699 -0.000333678 0
0.00507172 -0.00037906 0
0.0052519 -0.000192814 0
0.0051883 -0.000266429 0
0.00507772 -0.000383556 0
0.0053012 -0.000145124 0
0.00532281 -0.000111589 0
0.00508645 -0.000390293 0
0.00513389 -0.00034847 0
0.00528077 -0.000197652 0
0.00517609 -0.000321958 0
0.00509887 -0.000400285 0
0.00484148 -0.00057218 0
0.00530293 -0.000176032 0
0.00515013 -0.000363759 0
0.00525772 -0.0002466 0
0.00532394 -0.000145432 0
0.00521469 -0.000297649 0
0.00459451 -0.000653257 0
0.00533679 -0.000121427 0
0.00511605 -0.000414972 0
0.0053369 -0.000126586 0
0.00533702 -0.000131724 0
0.00533717 -0.000138635 0
0.00530524 -0.000217244 0
0.00472214 -0.000637936 0
0.00493327 -0.000567487 0
0.00517095 -0.000385164 0
0.00533733 -0.00014553 0
0.00501012 -0.000529243 0
0.00532555 -0.000191881 0
0.00533754 -0.00015493 0
0.00513906 -0.000436398 0
0.00533776 -0.000164324 0
0.0050956 -0.000479583 0
0.00509831 -0.000481938 0
0.005101 -0.000484306 0
0.00526467 -0.000315718 0
0.005245 -0.000340317 0
0.00533805 -0.000177189 0
0.00530753 -0.000258805 0
0.00519052 -0.000407417 0
0.00510495 -0.000487822 0
0.00510887 -0.000491366 0
0.00533835 -0.000190067 0
0.00485686 -0.000635535 0
0.00522644 -0.000383879 0
0.00528905 -0.000305731 0
0.00511449 -0.000496553 0
0.00533875 -0.000207664 0
0.00512004 -0.000501799 0
0.00532772 -0.000254907 0
0.00516861 -0.000467457 0
0.00512783 -0.000509375 0
0.00533914 -0.000225306 0
0.00521446 -0.000438153 0
0.00506662 -0.000567874 0
0.00531035 -0.000313185 0
0.00513548 -0.000517068 0
0 0 0
0.00527086 -0.000385176 0
0.00533967 -0.000249236 0
0.00514593 -0.000528034 0
0.00461296 -0.000730089 0
0.00534165 -0.000216993 0
0.00388425 -0.000712645 0
0.00534017 -0.000273256 0
0.00502984 -0.000626737 0
0.00515609 -0.000539225 0
0.00534187 -0.000228577 0
0.00523614 -0.000470248 0
0.00295045 -0.000556686 0
0.0053129 -0.000367921 0
0.00534214 -0.000243764 0
0.00486915 -0.000702559 0
0.00520454 -0.000512185 0
0.00533034 -0.000339138 0
0.00516958 -0.000554977 0
0.00534079 -0.000305472 0
0.00511662 -0.000600473 0
0.00534249 -0.000264056 0
0.0051214 -0.000605413 0
0.00512835 -0.000612786 0
0.00518249 -0.000571142 0
0.00527726 -0.00047235 0
0.00534135 -0.000337833 0
0.00529761 -0.000445271 0
0.00534291 -0.000291431 0
0.00495983 -0.000711403 0
0.0051382 -0.000623656 0
0.00526094 -0.000513888 0
0.00531563 -0.000438045 0
0.00519901 -0.000593611 0
0.00534339 -0.000328436 0
0.00534196 -0.000380614 0
0.00515179 -0.000639508 0
0.00524492 -0.00057608 0
0.0048776 -0.000769883 0
0.00474919 -0.000789336 0
0.00504282 -0.000724428 0
0.00533281 -0.000449599 0
0.00521445 -0.000616802 0
0.00462532 -0.000807979 0
0.00533243 -0.000317834 0
0.00516988 -0.000662409 0
0.00534239 -0.000423577 0
0.00533254 -0.000324357 0
0.00534384 -0.000378259 0
0.00528191 -0.000559574 0
0.00533263 -0.000330852 0
0.00531762 -0.000508401 0
0.00533275 -0.000339211 0
0.00533286 -0.000347542 0
0.00533299 -0.000358496 0
0.00512947 -0.000721156 0
0.00523323 -0.000648612 0
0.0051316 -0.00072372 0
0.00513371 -0.000726293 0
0.00533311 -0.000369425 0
0.00513681 -0.000730108 0
0.00519296 -0.00069522 0
0.00534265 -0.000479406 0
0.00513988 -0.000733945 0
0.00533325 -0.000383969 0
0.00514428 -0.000739547 0
0.00534406 -0.000444748 0
0.00533337 -0.000398495 0
0.00514861 -0.000745198 0
0.00515468 -0.000753331 0
0.00488245 -0.000841453 0
0.00525009 -0.000681611 0
0.00533349 -0.000417899 0
0.00530322 -0.000620579 0
0.00531887 -0.000596489 0
0.00516062 -0.000761559 0
0.00534251 -0.000535397 0
0.00533356 -0.000437295 0
0.00528495 -0.000666351 0
0.0050928 -0.000805168 0
0.00516872 -0.000773238 0
0.00533359 -0.000591216 0
0.00522071 -0.000741865 0
0.00533359 -0.000463137 0
0.00505023 -0.000838867 0
0.00517655 -0.000785102 0
0.00463066 -0.000886554 0
0.00534358 -0.000532326 0
0.00295337 -0.000600796 0
0.00533353 -0.000488984 0
0.00526911 -0.000726218 0
0.00497098 -0.000875574 0
0.00518691 -0.000801713 0
0.00534169 -0.000606735 0
0.00530408 -0.00044569 0
0.00531855 -0.000684485 0
0.00533333 -0.000523154 0
0.00530428 -0.000460602 0
0.00519676 -0.000818668 0
0.0048833 -0.000913127 0
0.00530448 -0.000479253 0
0.00513468 -0.000862528 0
0.00513839 -0.000867837 0
0.00533297 -0.000557338 0
0.00528486 -0.000772665 0
0.00525129 -0.000807638 0
0.00530467 -0.00050317 0
0.00514377 -0.000875737 0
0.00520926 -0.000842093 0
0.00534007 -0.000678089 0
0.00515136 -0.000887337 0
0.00475494 -0.000943958 0
0.00534143 -0.00064574 0
0.00530478 -0.000534348 0
0.00533226 -0.000601999 0
0.00522085 -0.000866125 0
0.00516176 -0.000904163 0
0.00388622 -0.000848107 0
0.00531584 -0.00079198 0
0.00504921 -0.000952965 0
0.00530471 -0.000575317 0
0.00532962 -0.000768116 0
0.00463006 -0.000965819 0
0.00533126 -0.000646658 0
0.00530023 -0.000834406 0
0.0051755 -0.000928297 0
0.00523474 -0.000898883 0
0.00487987 -0.000989621 0
0.0053368 -0.000767025 0
0.00530423 -0.00062919 0
0 0 0
0.00532954 -0.000704129 0
0.00528038 -0.000899461 0
0.00525962 -0.000580836 0
0.00519279 -0.000962565 0
0.00524699 -0.000932657 0
0.00525971 -0.000589362 0
0.00525979 -0.000597857 0
0.0016205 -0.000347402 0
0.00512951 -0.00100271 0
0.00525987 -0.00060826 0
0.00533584 -0.000789597 0
0.00513114 -0.00100544 0
0.00513275 -0.00100817 0
0.00525993 -0.000618629 0
0.00531038 -0.000898812 0
0.00513512 -0.00101222 0
0.00530292 -0.000699653 0
0.0053273 -0.000761523 0
0.00525998 -0.000631679 0
0.00513746 -0.00101629 0
0.00533204 -0.000855635 0
0.00514081 -0.00102222 0
0.00526 -0.00064469 0
0.0051441 -0.00102819 0
0.00526042 -0.000978035 0
0.00525999 -0.00066138 0
0.00521317 -0.00101078 0
0.0051487 -0.00103676 0
0.00496111 -0.00106132 0
0.00294442 -0.000649348 0
0.00525993 -0.000678028 0
0.00487223 -0.00106601 0
0.00515318 -0.00104541 0
0.00462288 -0.00104534 0
0.00525979 -0.000699612 0
0.00515925 -0.00105764 0
0.0053237 -0.00083406 0
0.00503869 -0.00108378 0
0.00508233 -0.00107977 0
0.00525957 -0.000721144 0
0.0051651 -0.00107003 0
0.00530006 -0.000790858 0
0.00527104 -0.00102502 0
0.00525918 -0.000749153 0
0.0053159 -0.000982795 0
0.00517276 -0.0010873 0
0.00532409 -0.00096347 0
0.0047403 -0.00110082 0
0.00523481 -0.00107798 0
0.00530002 -0.00102596 0
0.00525866 -0.000777096 0
0.00517998 -0.00110486 0
0.00531921 -0.000906329 0
0.00532383 -0.000967679 0
0.00525779 -0.000813331 0
0.00518902 -0.001129 0
0.0052805 -0.00108713 0
0.00485945 -0.00114772 0
0.00518772 -0.000748609 0
0.00529442 -0.000907171 0
0.00511151 -0.00116238 0
0.0052567 -0.000849467 0
0.00518789 -0.000768302 0
0.00511435 -0.00116796 0
0.00519726 -0.00115363 0
0.00511844 -0.00117624 0
0.00461004 -0.0011252 0
0.00518802 -0.000791749 0
0.00531234 -0.000995804 0
0.00531369 -0.00107038 0
0.00512417 -0.00118837 0
0.00525498 -0.000895947 0
0.00518803 -0.000820457 0
0.00520691 -0.00118703 0
0.00525374 -0.00117073 0
0.00513197 -0.00120589 0
0.00501815 -0.00121339 0
0.00528543 -0.00115161 0
0.00518785 -0.000856376 0
0.0052529 -0.000942258 0
0.00514214 -0.00123088 0
0.00521513 -0.00122128 0
0.00530403 -0.00108463 0
0.00518727 -0.000901958 0
0.00484226 -0.00122907 0
0.00528405 -0.00105273 0
0.00524972 -0.00100109 0
0.00515471 -0.00126613 0
0.00292494 -0.000694735 0
0.00385312 -0.000987927 0
0.00529786 -0.00119719 0
0.00522366 -0.00126703 0
0.00492381 -0.00126872 0
0.005186 -0.000960171 0
0.00530088 -0.00118212 0
0.00528531 -0.0012353 0
0.00459127 -0.00120487 0
0.00524594 -0.00105962 0
0.00516906 -0.00131529 0
0.00529186 -0.00119213 0
0.00508125 -0.00131934 0
0.00509874 -0.000925509 0
0.00508248 -0.00132218 0
0.0050837 -0.00132502 0
0.00522975 -0.00131413 0
0.00470617 -0.00125902 0
0.00509882 -0.00093684 0
0.00526276 -0.00129711 0
0.0050855 -0.00132923 0
0.00518349 -0.00103447 0
0.00508727 -0.00133345 0
0.00509887 -0.000948141 0
0.00508981 -0.00133959 0
0.0050989 -0.000961306 0
0.00509229 -0.00134577 0
0.00524036 -0.00113282 0
0.00509889 -0.000974436 0
0.00509575 -0.00135462 0
0.00509885 -0.000990182 0
0.0050991 -0.00136353 0
0.00481886 -0.00131605 0
0.00509875 -0.00100588 0
0.00498419 -0.00135835 0
0.00527837 -0.00132219 0
0.00510361 -0.00137611 0
0.00526602 -0.00123083 0
0.00509858 -0.00102517 0
0.00518337 -0.00138316 0
0.00510792 -0.00138882 0
0.00523397 -0.00137605 0
0.00517889 -0.00112867 0