# vtk DataFile Version 3.0
File generated from DClib
ASCII

DATASET UNSTRUCTURED_GRID
POINTS 1909 float
50 0 0 
48.75 0 0 
50 1.66667 0 
47.5 0 0 
50 3.33333 0 
46.25 0 0 
50 5 0 
45 0 0 
43.75 0 0 
50 6.66667 0 
43 2 0 
42.5 0 0 
50 8.33333 0 
43 4.66667 0 
41.25 0 0 
41.075 2 0 
50 10 0 
40 0 0 
43 7.33333 0 
39.15 2 0 
38.75 0 0 
43 10 0 
37.5 0 0 
37.225 2 0 
36.25 0 0 
36 4 0 
35.3 2 0 
36 5 0 
35 0 0 
35.325 4 0 
36 6 0 
36 7 0 
34.65 4 0 
36 8 0 
33.75 0 0 
33.975 4 0 
36 9 0 
33.375 2 0 
33.3 4 0 
36 10 0 
32.5 0 0 
32.625 4 0 
33 6 0 
31.95 4 0 
33 7.45455 0 
31.45 2 0 
31.25 0 0 
31.95 6 0 
33 8.79545 0 
31.275 4 0 
33 10 0 
30.6 4 0 
30 0 0 
30.9 6 0 
29.925 4 0 
29.525 2 0 
29.85 6 0 
29.25 4 0 
28.75 0 0 
30 8 0 
30 8.45455 0 
28.575 4 0 
29.625 8 0 
30 8.90909 0 
28.8 6 0 
30 9.25 0 
29.782 8.90909 0 
30 9.59091 0 
29.9487 9.59091 0 
29.25 8 0 
29.7462 9.25 0 
30 9.79545 0 
29.897 9.59091 0 
29.564 8.90909 0 
29.9547 9.79545 0 
29.3462 8.45455 0 
29.84 9.59091 0 
30 10 0 
29.8975 9.79545 0 
29.9882 10 0 
29.9902 10.0098 0 
29.7827 9.59091 0 
29.9765 10 0 
29.9804 10.0196 0 
29.9667 10.0098 0 
29.9591 10 0 
29.9686 10.0196 0 
29.9659 10.0341 0 
29.9569 10.0196 0 
29.9418 10 0 
29.9395 10.0196 0 
29.9515 10.0485 0 
29.932 10.0098 0 
29.9424 10.0341 0 
29.8241 9.79545 0 
29.7181 9.59091 0 
29.9166 10 0 
29.9397 10.0485 0 
29.9222 10.0196 0 
29.9279 10.0485 0 
29.9305 10.0695 0 
29.8914 10 0 
29.9077 10.0341 0 
27.9 4 0 
29.897 10.0196 0 
29.9106 10.0485 0 
29.8817 10.0098 0 
29.907 10.0695 0 
29.8933 10.0485 0 
29.9095 10.0905 0 
29.8719 10.0196 0 
27.6 2 0 
29.8556 10 0 
29.8978 10.0905 0 
29.6531 9.59091 0 
29.3437 8.90909 0 
27.5 0 0 
29.8681 10.0485 0 
29.886 10.0905 0 
29.8574 10.0341 0 
29.4839 9.25 0 
29.8723 10.0695 0 
29.7289 9.79545 0 
29.836 10.0196 0 
29.8687 10.0905 0 
29.8197 10 0 
29.8797 10.1203 0 
29.843 10.0485 0 
29.8513 10.0905 0 
29.81 10.0098 0 
29.8561 10.1203 0 
29.8002 10.0196 0 
29.8221 10.0695 0 
29.8072 10.0485 0 
29.8262 10.0905 0 
29.5782 9.59091 0 
29.8498 10.1502 0 
29.7695 10 0 
29.7858 10.0341 0 
29.838 10.1502 0 
29.8215 10.1203 0 
29.8011 10.0905 0 
29.8262 10.1502 0 
29.7714 10.0485 0 
28.875 8 0 
29.75 10.0196 0 
29.8089 10.1502 0 
29.7654 10.0905 0 
29.7193 10 0 
29.7916 10.1502 0 
29.7505 10.0695 0 
29.8079 10.1921 0 
29.7713 10.1203 0 
29.7096 10.0098 0 
29.6047 9.79545 0 
29.503 9.59091 0 
29.7213 10.0485 0 
29.7665 10.1502 0 
29.6999 10.0196 0 
29.7844 10.1921 0 
29.7296 10.0905 0 
29.6856 10.0341 0 
29.7414 10.1502 0 
29.7497 10.1921 0 
29.6503 10 0 
29.7661 10.2339 0 
29.6712 10.0485 0 
29.6999 10.1203 0 
29.7543 10.2339 0 
29.6796 10.0905 0 
29.7057 10.1502 0 
29.7425 10.2339 0 
29.1235 8.90909 0 
29.6309 10.0196 0 
29.6504 10.0695 0 
29.4146 9.59091 0 
29.7252 10.2339 0 
29.6996 10.1921 0 
29.6701 10.1502 0 
29.7079 10.2339 0 
29.6296 10.0905 0 
29.5813 10 0 
29.6023 10.0485 0 
29.5716 10.0098 0 
29.6828 10.2339 0 
29.7086 10.2914 0 
29.2101 9.25 0 
29.562 10.0196 0 
29.6201 10.1502 0 
29.6578 10.2339 0 
29.4428 9.79545 0 
29.5999 10.1203 0 
29.6849 10.2914 0 
29.6283 10.1921 0 
29.5477 10.0341 0 
29.3259 9.59091 0 
29.5608 10.0905 0 
29.5335 10.0485 0 
29.6221 10.2339 0 
29.6503 10.2914 0 
29.5702 10.1502 0 
29.4881 10 0 
29.5128 10.0695 0 
29.6511 10.3489 0 
29.5866 10.2339 0 
29.6392 10.3489 0 
29.4689 10.0196 0 
29.6002 10.2914 0 
29.6273 10.3489 0 
29.4921 10.0905 0 
29.61 10.3489 0 
29.5286 10.1921 0 
29.5016 10.1502 0 
29.5368 10.2339 0 
29.5926 10.3489 0 
29.4405 10.0485 0 
29.2199 9.59091 0 
29.4626 10.1203 0 
29.3949 10 0 
28.9 8.90909 0 
29.5676 10.3489 0 
29.5291 10.2914 0 
29.3853 10.0098 0 
28.6923 8.45455 0 
29.487 10.2339 0 
29.5426 10.3489 0 
29.3758 10.0196 0 
29.5734 10.4266 0 
29.4331 10.1502 0 
29.3993 10.0905 0 
28.5 8 0 
29.3617 10.0341 0 
29.5496 10.4266 0 
29.5071 10.3489 0 
29.2327 9.79545 0 
29.3475 10.0485 0 
29.1136 9.59091 0 
29.4187 10.2339 0 
29.5148 10.4266 0 
29.4716 10.3489 0 
29.3918 10.1921 0 
29.3271 10.0695 0 
29.4298 10.2914 0 
29.2714 10 0 
29.3406 10.1502 0 
28.9208 9.25 0 
29.3066 10.0905 0 
29.4648 10.4266 0 
29.422 10.3489 0 
29.4958 10.5042 0 
29.2524 10.0196 0 
27.75 6 0 
29.3504 10.2339 0 
29.4837 10.5042 0 
29.4718 10.5042 0 
29.2774 10.1203 0 
29.4543 10.5042 0 
29.3724 10.3489 0 
29.2244 10.0485 0 
29.4369 10.5042 0 
29.3938 10.4266 0 
28.9853 9.59091 0 
29.2481 10.1502 0 
28.6766 8.90909 0 
29.4119 10.5042 0 
29.2934 10.2914 0 
27.225 4 0 
29.148 10 0 
29.2582 10.2339 0 
29.1837 10.0905 0 
29.3869 10.5042 0 
29.1385 10.0098 0 
29.3044 10.3489 0 
29.1291 10.0196 0 
29.2072 10.1921 0 
29.3514 10.5042 0 
29.1152 10.0341 0 
29.3929 10.6071 0 
29.2949 10.4266 0 
29.1013 10.0485 0 
29.3686 10.6071 0 
29.316 10.5042 0 
29.2364 10.3489 0 
28.9623 9.79545 0 
29.1257 10.1502 0 
29.1662 10.2339 0 
29.0811 10.0695 0 
28.8566 9.59091 0 
29.3336 10.6071 0 
29.2666 10.5042 0 
29.0609 10.0905 0 
28.9875 10 0 
29.2835 10.6071 0 
29.1448 10.3489 0 
29.0321 10.1203 0 
29.2173 10.5042 0 
29.1098 10.2914 0 
28.125 8 0 
28.9688 10.0196 0 
29.1594 10.4266 0 
28.611 9.25 0 
29.29 10.71 0 
28.4486 8.90909 0 
29.0443 10.2339 0 
29.0033 10.1502 0 
29.2777 10.71 0 
28.9413 10.0485 0 
29.2128 10.6071 0 
29.2655 10.71 0 
29.1497 10.5042 0 
29.2478 10.71 0 
28.7003 9.59091 0 
29.0533 10.3489 0 
29.2303 10.71 0 
28.9629 10.1921 0 
28.9013 10.0905 0 
29.2051 10.71 0 
29.0822 10.5042 0 
29.1801 10.71 0 
28.827 10 0 
29.1144 10.6071 0 
28.8177 10.0098 0 
28.9225 10.2339 0 
28.8085 10.0196 0 
29.1447 10.71 0 
28.7949 10.0341 0 
28.8443 10.1502 0 
28.977 10.4266 0 
28.9322 10.3489 0 
29.1094 10.71 0 
28.7813 10.0485 0 
28.9912 10.5042 0 
29.1562 10.8438 0 
28.5436 9.59091 0 
28.7615 10.0695 0 
28.8669 10.2914 0 
29.1313 10.8438 0 
28.6184 9.79545 0 
29.0602 10.71 0 
28.2207 8.90909 0 
28.7418 10.0905 0 
28.0378 8.45455 0 
28.9798 10.6071 0 
29.0958 10.8438 0 
29.0112 10.71 0 
28.9005 10.5042 0 
28.7136 10.1203 0 
28.7644 10.2339 0 
28.8113 10.3489 0 
29.0454 10.8438 0 
28.6223 10 0 
28.6854 10.1502 0 
28.2746 9.25 0 
28.9441 10.71 0 
28.6042 10.0196 0 
27.75 8 0 
28.9747 10.8438 0 
28.6459 10.1921 0 
28.5773 10.0485 0 
29.0225 10.9775 0 
28.3532 9.59091 0 
28.7804 10.5042 0 
28.736 10.4266 0 
28.8772 10.71 0 
29.0097 10.9775 0 
28.9971 10.9775 0 
28.799 10.6071 0 
28.9791 10.9775 0 
28.5384 10.0905 0 
28.6064 10.2339 0 
28.6543 10.3489 0 
28.9611 10.9775 0 
28.8769 10.8438 0 
27.9867 8.90909 0 
26.25 0 0 
28.9358 10.9775 0 
28.7871 10.71 0 
28.9106 10.9775 0 
28.6607 10.5042 0 
28.4177 10 0 
26.55 4 0 
28.552 10.2914 0 
28.483 10.1502 0 
28.4087 10.0098 0 
28.8751 10.9775 0 
28.3998 10.0196 0 
28.3866 10.0341 0 
28.8399 10.9775 0 
28.6974 10.71 0 
28.3735 10.0485 0 
28.1625 9.59091 0 
28.7436 10.8438 0 
28.4976 10.3489 0 
28.3543 10.0695 0 
28.791 10.9775 0 
28.4052 10.2339 0 
28.3352 10.0905 0 
28.8519 11.1481 0 
28.1869 9.79545 0 
28.5607 10.6071 0 
28.5053 10.5042 0 
28.7423 10.9775 0 
28.8258 11.1481 0 
28.308 10.1203 0 
28.5787 10.71 0 
27.904 9.25 0 
28.7893 11.1481 0 
28.424 10.4266 0 
27.7528 8.90909 0 
28.2807 10.1502 0 
28.6758 10.9775 0 
27.375 8 0 
28.7383 11.1481 0 
28.1619 10 0 
28.5649 10.8438 0 
28.2425 10.1921 0 
28.6096 10.9775 0 
28.1444 10.0196 0 
28.298 10.3489 0 
28.4605 10.71 0 
26.7 6 0 
27.9315 9.59091 0 
28.3503 10.5042 0 
28.6676 11.1481 0 
28.1187 10.0485 0 
28.2042 10.2339 0 
28.5207 10.9775 0 
28.0813 10.0905 0 
28.6814 11.3186 0 
27.3818 8.45455 0 
28.6679 11.3186 0 
28.1516 10.2914 0 
28.5703 11.1481 0 
28.6544 11.3186 0 
28.6358 11.3186 0 
27.5109 8.90909 0 
28.3072 10.71 0 
28.6173 11.3186 0 
28.2524 10.6071 0 
28.4322 10.9775 0 
28.028 10.1502 0 
28.5915 11.3186 0 
28.0989 10.3489 0 
28.33 10.8438 0 
28.5658 11.3186 0 
28.153 10.5042 0 
27.9061 10 0 
27.8975 10.0098 0 
28.5303 11.3186 0 
28.4384 11.1481 0 
27.7002 9.59091 0 
27.889 10.0196 0 
27.8765 10.0341 0 
28.4949 11.3186 0 
28.3154 10.9775 0 
27.9532 10.2339 0 
27.8639 10.0485 0 
28.0276 10.4266 0 
28.1544 10.71 0 
27.8457 10.0695 0 
27.4909 9.25 0 
28.4463 11.3186 0 
27 8 0 
27.8275 10.0905 0 
28.3979 11.3186 0 
27.8015 10.1203 0 
27.6542 9.79545 0 
25.675 2 0 
28.1991 10.9775 0 
27.2691 8.90909 0 
27.9563 10.5042 0 
28.4682 11.5318 0 
28.2625 11.1481 0 
27.7755 10.1502 0 
28.3322 11.3186 0 
27.8502 10.3489 0 
28.4401 11.5318 0 
25.875 4 0 
27.7391 10.1921 0 
28.4019 11.5318 0 
28.0268 10.8438 0 
28.2668 11.3186 0 
27.9602 10.71 0 
28.3498 11.5318 0 
27.4223 9.59091 0 
27.7026 10.2339 0 
27.5927 10 0 
28.0486 10.9775 0 
27.8616 10.6071 0 
27.5762 10.0196 0 
28.1794 11.3186 0 
28.2786 11.5318 0 
27.5519 10.0485 0 
27.6524 10.2914 0 
28.0319 11.1481 0 
27.7108 10.5042 0 
27.5167 10.0905 0 
27.0169 8.90909 0 
28.0924 11.3186 0 
27.6021 10.3489 0 
27.8988 10.9775 0 
28.1818 11.5318 0 
27.7667 10.71 0 
26.625 8 0 
28.255 11.745 0 
27.4664 10.1502 0 
28.2402 11.745 0 
28.2256 11.745 0 
28.2059 11.745 0 
27.978 11.3186 0 
26.7234 8.45455 0 
27.0259 9.25 0 
27.5342 10.4266 0 
28.1863 11.745 0 
27.1442 9.59091 0 
28.0516 11.5318 0 
28.1598 11.745 0 
27.3959 10.2339 0 
28.1334 11.745 0 
27.2793 10 0 
27.2714 10.0098 0 
27.2635 10.0196 0 
27.7086 10.9775 0 
27.6431 10.8438 0 
28.0975 11.745 0 
27.8643 11.3186 0 
27.4661 10.5042 0 
27.2518 10.0341 0 
27.2401 10.0485 0 
28.0617 11.745 0 
26.7648 8.90909 0 
27.5255 10.71 0 
27.7353 11.1481 0 
27.2231 10.0695 0 
28.0133 11.745 0 
27.2061 10.0905 0 
27.8791 11.5318 0 
27.2986 10.3489 0 
27.1818 10.1203 0 
27.9651 11.745 0 
27.3758 10.6071 0 
27.0077 9.79545 0 
27.7174 11.3186 0 
27.1576 10.1502 0 
25 0 0 
27.5193 10.9775 0 
27.9003 11.745 0 
27.1236 10.1921 0 
26.25 8 0 
27.9939 12.0061 0 
25.65 6 0 
27.8359 11.745 0 
26.8136 9.59091 0 
27.0896 10.2339 0 
27.9626 12.0061 0 
27.2853 10.71 0 
25.2 4 0 
27.5713 11.3186 0 
27.9218 12.0061 0 
26.4998 8.90909 0 
27.167 10.5042 0 
27.6541 11.5318 0 
27.0427 10.2914 0 
27.7503 11.745 0 
26.9033 10 0 
27.8677 12.0061 0 
26.8882 10.0196 0 
26.8659 10.0485 0 
26.9958 10.3489 0 
27.2836 10.9775 0 
27.6652 11.745 0 
27.3609 11.1481 0 
27.7955 12.0061 0 
26.499 9.25 0 
[...]
POINT_DATA 1909
SCALARS phi float 1
LOOKUP_TABLE default
VECTORS Displacement float
0 0 0
0 0 0
0 -0.00128181 0
0 0 0
0 -0.000591554 0
0 0 0
0 0.00189132 0
0 0 0
0 0 0
0 0.00600482 0
0.0115187 -0.000508237 0
0 0 0
0 0.0115296 0
0.0218748 0.00402298 0
0 0 0
0.015508 -0.000510196 0
0 0.0181296 0
0 0 0
0.0292187 0.013013 0
0.0197272 -0.000598974 0
0 0 0
0.0332496 0.0248505 0
0 0 0
0.0240636 -0.000822306 0
0 0 0
0.0450893 0.0028163 0
0.0282739 -0.00115501 0
0.053696 0.0062582 0
0 0 0
0.048321 0.00256588 0
0.0598574 0.0106897 0
0.0640338 0.0157941 0
0.0513718 0.00230223 0
0.0668067 0.0210525 0
0 0 0
0.0543766 0.00190533 0
0.0686886 0.0263279 0
0.0321503 -0.00156786 0
0.0572207 0.00148254 0
0.0701817 0.0316276 0
0 0 0
0.0599062 0.000993177 0
0.0777258 0.00885389 0
0.0624208 0.000476564 0
0.0858664 0.0172638 0
0.0355318 -0.00204595 0
0 0 0
0.0838472 0.00646144 0
0.0897474 0.0271497 0
0.064752 -8.2442e-05 0
0.090152 0.0386506 0
0.06689 -0.000667759 0
0 0 0
0.0886988 0.00431385 0
0.068841 -0.00129198 0
0.0382929 -0.00258235 0
0.0927384 0.00213599 0
0.0705916 -0.00195258 0
0 0 0
0.109375 0.00950793 0
0.112635 0.0118284 0
0.0721481 -0.00263094 0
0.111335 0.00794459 0
0.115911 0.0145106 0
0.0960478 -0.000142669 0
0.117966 0.0175276 0
0.117445 0.0131768 0
0.119661 0.0216783 0
0.12011 0.0204247 0
0.113057 0.00640613 0
0.119869 0.0152009 0
0.119974 0.0251768 0
0.120551 0.0194743 0
0.118828 0.0118884 0
0.120442 0.0237747 0
0.116319 0.00860824 0
0.120992 0.0186208 0
0.119791 0.0293675 0
0.121074 0.0223523 0
0.120011 0.0294542 0
0.138488 0.036124 0
0.121406 0.0178895 0
0.120259 0.0294247 0
0.148511 0.0393704 0
0.138017 0.0357411 0
0.120638 0.0292821 0
0.147988 0.0390309 0
0.149459 0.039146 0
0.147402 0.0385894 0
0.121041 0.0290929 0
0.146458 0.0379228 0
0.149444 0.038747 0
0.137272 0.0347995 0
0.149008 0.0383801 0
0.121929 0.0209941 0
0.121853 0.0172076 0
0.121616 0.0285558 0
0.149414 0.0383891 0
0.145509 0.0371973 0
0.149381 0.0380341 0
0.149516 0.0382295 0
0.122188 0.0280356 0
0.147956 0.0371846 0
0.0734944 -0.00335501 0
0.144319 0.0360529 0
0.149261 0.0375209 0
0.136471 0.0330183 0
0.149439 0.037509 0
0.14907 0.0369501 0
0.149373 0.0376397 0
0.143224 0.034945 0
0.0403242 -0.00318791 0
0.122938 0.0270732 0
0.149336 0.0372653 0
0.122283 0.01659 0
0.120122 0.0106575 0
0 0 0
0.148681 0.036049 0
0.149292 0.0368741 0
0.146304 0.0351882 0
0.121571 0.0133076 0
0.14928 0.0363321 0
0.123026 0.0197 0
0.142004 0.0333212 0
0.149217 0.0362652 0
0.123636 0.0261795 0
0.14922 0.0367661 0
0.148136 0.0351038 0
0.149146 0.0356401 0
0.135739 0.0303858 0
0.149135 0.0359348 0
0.140957 0.031858 0
0.148827 0.0344951 0
0.1473 0.0337014 0
0.149031 0.03473 0
0.122788 0.0159646 0
0.149061 0.0358226 0
0.124515 0.0249663 0
0.144177 0.032285 0
0.149008 0.0353921 0
0.148998 0.0346788 0
0.148915 0.0338349 0
0.148955 0.0349612 0
0.14638 0.032366 0
0.114713 0.00490239 0
0.139819 0.0299735 0
0.148878 0.0343312 0
0.148688 0.0326282 0
0.125294 0.0238472 0
0.148801 0.0337141 0
0.147776 0.0319804 0
0.148835 0.034464 0
0.148803 0.0329239 0
0.135089 0.0272473 0
0.124298 0.0183294 0
0.12329 0.0153782 0
0.145136 0.0305954 0
0.148695 0.0328454 0
0.138952 0.0283362 0
0.14874 0.033617 0
0.148392 0.0314859 0
0.141795 0.0288073 0
0.148596 0.0320196 0
0.148604 0.0324238 0
0.126239 0.0225457 0
0.148633 0.0331371 0
0.14396 0.0289964 0
0.148504 0.0306861 0
0.148584 0.0327252 0
0.14786 0.0300093 0
0.148466 0.0309121 0
0.148536 0.0323242 0
0.121294 0.00944557 0
0.138028 0.0264058 0
0.145954 0.0289043 0
0.123896 0.0147455 0
0.148469 0.031751 0
0.148419 0.030837 0
0.148357 0.0298926 0
0.148405 0.0312006 0
0.147198 0.0286427 0
0.127051 0.021341 0
0.142531 0.0270404 0
0.134567 0.0239422 0
0.148318 0.0304409 0
0.148425 0.03142 0
0.12318 0.0115423 0
0.137403 0.0247436 0
0.148195 0.028593 0
0.148237 0.0297242 0
0.125704 0.0168012 0
0.147866 0.0280462 0
0.148341 0.0306776 0
0.148193 0.0288638 0
0.139555 0.0251246 0
0.124503 0.0141346 0
0.146189 0.0269408 0
0.14135 0.025332 0
0.148129 0.0287706 0
0.148226 0.0296595 0
0.148022 0.0274156 0
0.127995 0.0200242 0
0.143498 0.0254474 0
0.148217 0.0298409 0
0.148029 0.0278864 0
0.148182 0.0294996 0
0.13671 0.0228606 0
0.148073 0.0283208 0
0.148148 0.0291685 0
0.145118 0.025389 0
0.1481 0.0286973 0
0.147944 0.0265455 0
0.147684 0.025961 0
0.147902 0.0267436 0
0.148054 0.0282446 0
0.140054 0.023345 0
0.125211 0.0134281 0
0.146481 0.0250579 0
0.128792 0.0187831 0
0.122381 0.00824399 0
0.147989 0.0276185 0
0.147882 0.0266372 0
0.134179 0.0206276 0
0.119369 0.00562911 0
0.147792 0.0257018 0
0.147928 0.0270236 0
0.136257 0.0212045 0
0.148058 0.0279445 0
0.147216 0.0246232 0
0.143728 0.0235035 0
0.1162 0.00337955 0
0.137765 0.0214577 0
0.147997 0.0273452 0
0.147844 0.0262236 0
0.127244 0.0150545 0
0.139094 0.0216198 0
0.125915 0.012734 0
0.147651 0.0243895 0
0.147912 0.0265219 0
0.147766 0.0254722 0
0.147527 0.0239137 0
0.140912 0.0217796 0
0.147657 0.024611 0
0.129683 0.0174209 0
0.146418 0.0229891 0
0.124755 0.00980727 0
0.142474 0.0218217 0
0.1478 0.0254243 0
0.14766 0.0244913 0
0.147873 0.0262252 0
0.135729 0.0193463 0
0.0986133 -0.00253143 0
0.147522 0.0232017 0
0.14785 0.0259542 0
0.147828 0.0256897 0
0.144217 0.0217147 0
0.147798 0.0253128 0
0.14756 0.0235784 0
0.13813 0.0196782 0
0.147768 0.0249474 0
0.147655 0.0240129 0
0.126717 0.0119017 0
0.145473 0.0214777 0
0.123398 0.00705737 0
0.147724 0.0244386 0
0.147413 0.0222599 0
0.0746404 -0.00409618 0
0.130439 0.0161138 0
0.147272 0.0217513 0
0.141073 0.0198532 0
0.147683 0.0239493 0
0.13397 0.0172952 0
0.147431 0.0224169 0
0.135437 0.0176864 0
0.146452 0.02098 0
0.147624 0.0232844 0
0.13653 0.0178597 0
0.147741 0.024208 0
0.147471 0.0222635 0
0.137481 0.017969 0
0.147701 0.0237244 0
0.147566 0.0226508 0
0.14731 0.0213509 0
0.128932 0.0129952 0
0.144188 0.01967 0
0.146917 0.020426 0
0.138799 0.0180815 0
0.127503 0.0110754 0
0.147646 0.0230554 0
0.147487 0.0218125 0
0.140021 0.0181363 0
0.131303 0.0146658 0
0.14757 0.0221518 0
0.147167 0.0200329 0
0.141613 0.0181336 0
0.14741 0.0210234 0
0.147079 0.0196294 0
0.117569 0.00183506 0
0.135161 0.0158444 0
0.147243 0.0201848 0
0.126313 0.00800831 0
0.147611 0.0223647 0
0.124363 0.0058561 0
0.146269 0.0188557 0
0.142983 0.0180379 0
0.147597 0.0221426 0
0.136919 0.0160705 0
0.14747 0.020969 0
0.147582 0.021925 0
0.147307 0.0200143 0
0.147561 0.021616 0
0.128388 0.0100701 0
0.147046 0.0188496 0
0.147541 0.0213147 0
0.144435 0.0177637 0
0.139032 0.0161752 0
0.147511 0.0208949 0
0.147209 0.0190822 0
0.147482 0.0204887 0
0.132081 0.0132593 0
0.147342 0.019483 0
0.134155 0.0139224 0
0.145459 0.0173957 0
0.135126 0.0141615 0
0.147441 0.0199353 0
0.135917 0.0142714 0
0.141677 0.0160977 0
0.146992 0.017845 0
0.146834 0.0174391 0
0.147401 0.0194069 0
0.136606 0.0143363 0
0.147086 0.0179335 0
0.147525 0.0202063 0
0.129234 0.00906466 0
0.137534 0.014392 0
0.146234 0.016784 0
0.147503 0.019805 0
0.130788 0.0105093 0
0.147346 0.0187072 0
0.125262 0.00465705 0
0.138404 0.0144134 0
0.121816 0.0025707 0
0.147185 0.0177095 0
0.147471 0.0192544 0
0.147296 0.0180513 0
0.146976 0.0168865 0
0.139582 0.014399 0
0.144362 0.0156233 0
0.146568 0.0161379 0
0.147429 0.0185138 0
0.133021 0.0116252 0
0.140695 0.0143389 0
0.127832 0.00606488 0
0.147232 0.0172088 0
0.135197 0.0122252 0
0.118758 0.000275602 0
0.147372 0.0175503 0
0.142104 0.0141809 0
0.136441 0.0123417 0
0.147415 0.0182283 0
0.130165 0.0078354 0
0.146848 0.0155966 0
0.146682 0.0152513 0
0.147176 0.016427 0
0.147408 0.0180447 0
0.147401 0.0178654 0
0.146996 0.0156706 0
0.147391 0.0176143 0
0.137931 0.0123571 0
0.143312 0.0139442 0
0.146081 0.0145467 0
0.147382 0.0173707 0
0.1473 0.0163438 0
0.126114 0.00342496 0
0 0 0
0.14737 0.0170345 0
0.147106 0.0154407 0
0.147358 0.0167111 0
0.14671 0.0143801 0
0.133899 0.0100261 0
0.0755634 -0.00489925 0
0.14457 0.0135095 0
0.139835 0.0122334 0
0.134886 0.0103008 0
0.147343 0.0162737 0
0.135427 0.0103984 0
0.135966 0.0104408 0
0.147329 0.015855 0
0.147034 0.0144999 0
0.136446 0.0104568 0
0.131023 0.00659983 0
0.147212 0.0148672 0
0.145423 0.0129904 0
0.137094 0.0104546 0
0.147314 0.0152993 0
0.142204 0.0118684 0
0.137702 0.01043 0
0.14743 0.0160084 0
0.132792 0.00748811 0
0.146761 0.0132503 0
0.146504 0.0128613 0
0.147298 0.0147648 0
0.147423 0.0156838 0
0.138524 0.0103669 0
0.146941 0.0133033 0
0.129281 0.00390877 0
0.147412 0.0152486 0
0.146029 0.0122039 0
0.126886 0.00218365 0
0.139307 0.0102775 0
0.147278 0.0140626 0
0.119799 -0.00130149 0
0.1474 0.0146685 0
0.134971 0.00809775 0
0.147102 0.0130318 0
0.140363 0.0101165 0
0.147255 0.0133781 0
0.135826 0.00823298 0
0.144535 0.011049 0
0.146835 0.0121421 0
0.100405 -0.0050386 0
0.131943 0.00509833 0
0.146277 0.0113891 0
0.147384 0.0138999 0
0.136637 0.00823632 0
0.141364 0.00991448 0
0.147218 0.0124802 0
0.137653 0.00815713 0
0.147393 0.0140068 0
0.12376 -0.000525801 0
0.147395 0.0138598 0
0.142602 0.00957026 0
0.147362 0.0128865 0
0.147396 0.0137151 0
0.147399 0.013516 0
0.127606 0.000892223 0
0.146684 0.0106704 0
0.147401 0.0133198 0
0.146402 0.0103056 0
0.147175 0.011601 0
0.138974 0.00795756 0
0.147405 0.0130495 0
0.143651 0.00915482 0
0.146934 0.0107283 0
0.147407 0.0127827 0
0.145862 0.00956783 0
0.135927 0.00618695 0
0.136152 0.00618499 0
0.147409 0.0124171 0
0.14733 0.0115555 0
0.132752 0.00358537 0
0.136393 0.00618463 0
0.136676 0.00615494 0
0.14741 0.0120558 0
0.147112 0.0104598 0
0.140668 0.00755823 0
0.136978 0.00612709 0
0.144684 0.00849903 0
0.146514 0.00924145 0
0.137389 0.00606932 0
0.130609 0.00147271 0
0.147409 0.0115652 0
0.120668 -0.00289615 0
0.137788 0.00600141 0
0.147406 0.0110803 0
0.138335 0.00588761 0
0.13474 0.00378233 0
0.0414914 -0.00387476 0
0.147042 0.00934339 0
0.128236 -0.000413622 0
0.145343 0.0077748 0
0.147447 0.0117505 0
0.147276 0.00982546 0
0.138869 0.00575993 0
0.147401 0.0104281 0
0.142727 0.0068328 0
0.147449 0.0114628 0
0.0762708 -0.0057152 0
0.139588 0.00555841 0
0.147451 0.0110766 0
0.146663 0.00787546 0
0.147393 0.00978495 0
0.146267 0.00746115 0
0.147453 0.0105533 0
0.13359 0.0017634 0
0.140278 0.00533381 0
0.136904 0.00383437 0
0.146939 0.00792439 0
0.145773 0.0067509 0
0.13717 0.00376037 0
0.14738 0.00893353 0
0.147456 0.00984456 0
0.137563 0.00364106 0
0.141188 0.00499184 0
0.147184 0.00762161 0
0.14464 0.00556814 0
0.138157 0.00346045 0
0.128803 -0.00178653 0
0.147364 0.00809599 0
0.142046 0.00461279 0
0.146823 0.00653797 0
0.147457 0.00889193 0
0.145999 0.00572259 0
0.12139 -0.00452307 0
0.147381 0.00958303 0
0.138988 0.00317224 0
0.147383 0.00943683 0
0.147384 0.00929186 0
0.147387 0.00909764 0
0.147337 0.00700813 0
0.125176 -0.00370933 0
0.131749 -0.00131174 0
0.143065 0.00403966 0
0.147389 0.00890496 0
0.134274 -7.48138e-05 0
0.147455 0.007629 0
0.147393 0.00864427 0
0.140117 0.00271513 0
0.147396 0.00838571 0
0.13763 0.00148121 0
0.137743 0.0014361 0
0.137855 0.00139042 0
0.14666 0.00480928 0
0.146241 0.00440708 0
0.1474 0.00803492 0
0.147304 0.00594006 0
0.143917 0.00340804 0
0.138017 0.00132216 0
0.138179 0.00125284 0
0.147403 0.00768725 0
0.129271 -0.00317548 0
0.14562 0.00361182 0
0.147027 0.00487404 0
0.138415 0.00114985 0
0.147408 0.00721742 0
0.138649 0.00104403 0
0.147441 0.0059826 0
0.141545 0.00198343 0
0.13898 0.000887836 0
0.147412 0.00675226 0
0.144728 0.00250245 0
0.136301 -0.000739155 0
0.147253 0.00457923 0
0.139308 0.000725941 0
0 0 0
0.146482 0.00312538 0
0.147416 0.0061299 0
0.139761 0.000489703 0
0.121943 -0.00617233 0
0.14722 0.0070015 0
0.101405 -0.00770218 0
0.147418 0.00551422 0
0.134917 -0.00226859 0
0.140204 0.000242379 0
0.147222 0.0066974 0
0.145215 0.0015499 0
0.076737 -0.00661933 0
0.147192 0.00324574 0
0.147224 0.00630246 0
0.129666 -0.00464887 0
0.143216 0.000844051 0
0.147404 0.00387519 0
0.140795 -0.000114909 0
0.147419 0.00470147 0
0.138262 -0.00128145 0
0.147227 0.00578021 0
0.138451 -0.0013803 0
0.138729 -0.00152989 0
0.141362 -0.00049198 0
0.146233 0.00107825 0
0.147416 0.00389821 0
0.146768 0.00152773 0
0.147231 0.00508453 0
0.132609 -0.00451611 0
0.139125 -0.0017547 0
0.145618 0.000299579 0
0.147096 0.00158239 0
0.142096 -0.00102598 0
0.147234 0.00415878 0
0.147406 0.00285407 0
0.139678 -0.00209135 0
0.144682 -0.00089014 0
0.129955 -0.00613802 0
0.126038 -0.00700638 0
0.135365 -0.00448224 0
0.147314 0.00123164 0
0.142769 -0.00159671 0
0.122344 -0.00785701 0
0.146774 0.00445388 0
0.140424 -0.00259524 0
0.147388 0.00182338 0
0.146776 0.00429307 0
0.147232 0.00293513 0
0.145971 -0.000913063 0
0.146777 0.00413333 0
0.146979 -4.34385e-05 0
0.14678 0.00392762 0
0.146783 0.00372317 0
0.146786 0.003455 0
0.138631 -0.00407354 0
0.143539 -0.00240893 0
0.138714 -0.00412748 0
0.138797 -0.00418183 0
0.146789 0.00318832 0
0.138917 -0.0042627 0
0.14138 -0.00334998 0
0.147353 0.000506716 0
0.139037 -0.00434455 0
0.146792 0.00283486 0
0.139209 -0.00446488 0
0.147218 0.00133579 0
0.146795 0.00248328 0
0.139379 -0.00458718 0
0.139618 -0.00476497 0
0.130152 -0.00773045 0
0.144177 -0.00327245 0
0.146798 0.00201592 0
0.146322 -0.0024401 0
0.146795 -0.00203026 0
0.139853 -0.00494681 0
0.147301 -0.000791711 0
0.1468 0.00155099 0
0.145596 -0.00327842 0
0.137183 -0.00616381 0
0.140173 -0.00520828 0
0.147108 -0.00201458 0
0.142517 -0.00447958 0
0.1468 0.000935136 0
0.135658 -0.00709463 0
0.140484 -0.00547777 0
0.122574 -0.00956796 0
0.147172 -0.000724123 0
0.0769621 -0.00751789 0
0.146797 0.000322577 0
0.144744 -0.004438 0
0.133053 -0.00821374 0
0.140894 -0.00586121 0
0.147208 -0.00242075 0
0.14598 0.00138838 0
0.146561 -0.00397892 0
0.146789 -0.000481968 0
0.145981 0.00103402 0
0.141283 -0.00625954 0
0.130238 -0.00933776 0
0.145982 0.000592472 0
0.138751 -0.00738038 0
0.138891 -0.00749621 0
0.146776 -0.00128192 0
0.145167 -0.00561396 0
0.143672 -0.00614487 0
0.145982 2.80909e-05 0
0.139095 -0.00766983 0
0.141772 -0.00681902 0
0.147082 -0.00402894 0
0.139383 -0.00792736 0
0.126339 -0.0104233 0
0.147053 -0.00333402 0
0.145979 -0.000705002 0
0.146749 -0.00231987 0
0.142219 -0.00740257 0
0.139778 -0.00830616 0
0.101585 -0.0105558 0
0.146214 -0.00634489 0
0.135686 -0.00973014 0
0.145969 -0.0016643 0
0.146678 -0.00594859 0
0.122648 -0.0113112 0
0.146712 -0.00335152 0
0.145549 -0.00713785 0
0.140301 -0.00885949 0
0.142739 -0.00820755 0
0.130205 -0.0110673 0
0.146881 -0.00601797 0
0.145947 -0.00291957 0
0 0 0
0.146647 -0.00467084 0
0.144628 -0.00845778 0
0.144763 -0.00176781 0
0.140958 -0.00966259 0
0.143181 -0.00904184 0
0.144764 -0.00196594 0
0.144765 -0.00216329 0
0.0416317 -0.00463765 0
0.138552 -0.010686 0
0.144766 -0.00240528 0
0.146793 -0.00659015 0
0.138612 -0.0107473 0
0.138672 -0.0108089 0
0.144767 -0.00264643 0
0.145787 -0.00870132 0
0.13876 -0.0109002 0
0.145899 -0.0045525 0
0.146563 -0.00598213 0
0.144767 -0.00294989 0
0.138847 -0.0109923 0
0.146622 -0.00799009 0
0.138971 -0.011127 0
0.144767 -0.0032524 0
0.139093 -0.0112631 0
0.14366 -0.010164 0
0.144765 -0.00364018 0
0.141726 -0.0108182 0
0.139264 -0.0114595 0
0.132897 -0.0124703 0
0.0769167 -0.00853755 0
0.144762 -0.00402687 0
0.130053 -0.0128107 0
0.13943 -0.0116587 0
0.12255 -0.0130804 0
0.144757 -0.00452781 0
0.139656 -0.0119423 0
0.146428 -0.0076333 0
0.135427 -0.0127839 0
0.136907 -0.012588 0
0.144749 -0.00502739 0
0.139874 -0.0122311 0
0.1458 -0.00665507 0
0.144032 -0.0113267 0
0.144735 -0.00567662 0
0.145881 -0.0107177 0
0.140159 -0.0126367 0
0.146241 -0.0104015 0
0.126081 -0.0139571 0
0.14254 -0.0124555 0
0.145209 -0.0115625 0
0.144718 -0.00632406 0
0.140429 -0.0130516 0
0.146259 -0.0092752 0
0.146288 -0.0105992 0
0.144689 -0.00716285 0
0.140768 -0.0136258 0
0.144361 -0.0128572 0
0.129753 -0.0146931 0
0.142887 -0.00563848 0
0.145608 -0.00932657 0
0.137975 -0.0144754 0
0.144653 -0.00799915 0
0.142888 -0.00609621 0
0.138076 -0.0146027 0
0.141079 -0.0142153 0
0.138224 -0.0147925 0
0.122298 -0.0148781 0
0.142887 -0.00664111 0
0.146007 -0.011309 0
0.145787 -0.0128083 0
0.138432 -0.0150717 0
0.144597 -0.00907402 0
0.142883 -0.00730838 0
0.141446 -0.0150194 0
0.14326 -0.0147301 0
0.138716 -0.0154777 0
0.134866 -0.0158413 0
0.144549 -0.0144377 0
0.142871 -0.00814355 0
0.144529 -0.0101452 0
0.13909 -0.0160617 0
0.141766 -0.0158484 0
0.145705 -0.0133325 0
0.142847 -0.00920381 0
0.129327 -0.0165865 0
0.145258 -0.0126678 0
0.144425 -0.0115058 0
0.139558 -0.0168932 0
0.076598 -0.00950921 0
0.100915 -0.0136233 0
0.145161 -0.0157013 0
0.142107 -0.0169606 0
0.131936 -0.0173229 0
0.142801 -0.0105587 0
0.145411 -0.0154704 0
0.144594 -0.0164786 0
0.12188 -0.0166977 0
0.144303 -0.0128604 0
0.140107 -0.0180653 0
0.145275 -0.0157938 0
0.137055 -0.0182222 0
0.140567 -0.00973798 0
0.137099 -0.0182879 0
0.137143 -0.0183537 0
0.142368 -0.0181086 0
0.125271 -0.0176009 0
0.140567 -0.0100025 0
0.143681 -0.0178261 0
0.137208 -0.0184512 0
0.142717 -0.0122894 0
0.137272 -0.0185491 0
0.140567 -0.0102664 0
0.137363 -0.0186918 0
0.140566 -0.0105741 0
0.137453 -0.0188356 0
0.144122 -0.0145559 0
0.140564 -0.010881 0
0.137578 -0.019042 0
0.140561 -0.0112493 0
0.137701 -0.0192504 0
0.128721 -0.0186306 0
0.140556 -0.0116167 0
0.133918 -0.0192906 0
0.14445 -0.0185889 0
0.137866 -0.0195454 0
0.144658 -0.0167711 0
0.140548 -0.012068 0
0.140681 -0.0196998 0
0.138025 -0.0198442 0
0.142591 -0.0196206 0
0.142569 -0.0144865 0
0.140539 -0.0125182 0
0.143913 -0.0162416 0
0.144781 -0.0182411 0
0.135161 -0.0198923 0
0 0 0
0.138234 -0.0202609 0
0.140524 -0.0130806 0
0.121314 -0.0185411 0
0.13843 -0.0206846 0
0.140507 -0.0136416 0
0.140481 -0.0143493 0
0.138677 -0.0212672 0
0.142692 -0.0211836 0
0.143614 -0.0183146 0
0.14045 -0.0150549 0
0.142315 -0.0172447 0
0.138901 -0.0218621 0
0.141175 -0.0219501 0
0.144026 -0.0212646 0
0.127984 -0.0206786 0
0.140404 -0.0159475 0
0.144108 -0.0211516 0
0.143509 -0.0219595 0
0.0759646 -0.0106301 0
0.139164 -0.0226683 0
0.13566 -0.0223863 0
0.14035 -0.0168369 0
0.135738 -0.0225197 0
0.143274 -0.0203713 0
0.135851 -0.0227179 0
0.137354 -0.0147358 0
0.142657 -0.0232026 0
0.143694 -0.021703 0
0.136009 -0.0230083 0
0.139389 -0.0234942 0
0.140272 -0.0179586 0
0.137354 -0.0153531 0
0.132658 -0.0227112 0
0.120597 -0.0203977 0
0.136226 -0.023428 0
0.137351 -0.0160548 0
0.123926 -0.0213396 0
0.141896 -0.0206541 0
0.13 -0.0227453 0
0.140183 -0.0190749 0
0.136509 -0.024027 0
0.139625 -0.0245966 0
0.137341 -0.0168743 0
0.143353 -0.024035 0
0.141404 -0.0250004 0
0.142804 -0.0228502 0
0.137321 -0.0178546 0
0.136861 -0.0248719 0
0.127034 -0.0228818 0
0.14245 -0.0252894 0
0.140054 -0.0204712 0
0.139796 -0.0257299 0
0.0993668 -0.0168902 0
0.137284 -0.0190497 0
0.139907 -0.0218586 0
0.137267 -0.0260507 0
0.0405989 -0.00543181 0
0.142277 -0.0253014 0
0.13722 -0.0205247 0
0.119742 -0.0222694 0
0.139923 -0.027217 0
0.141231 -0.0247878 0
0.1397 -0.0235726 0
0.142363 -0.027372 0
0.133917 -0.0264608 0
0.133951 -0.0265286 0
0.133985 -0.0265965 0
0.134035 -0.0266969 0
0.141973 -0.0279295 0
0.134085 -0.0267977 0
0.137684 -0.0276766 0
0.142232 -0.0274758 0
0.134158 -0.0269443 0
0.137112 -0.0223547 0
0.134228 -0.0270917 0
0.134327 -0.0273029 0
0.130944 -0.026458 0
0.125963 -0.0250738 0
0.13375 -0.0200271 0
0.139949 -0.0287487 0
0.134423 -0.0275155 0
0.0750381 -0.0116286 0
0.139467 -0.0252718 0
0.13375 -0.0203839 0
0.141093 -0.0290601 0
0.134553 -0.0278158 0
0.133749 -0.0207402 0
0.141574 -0.0281886 0
0.134678 -0.0281188 0
0.133746 -0.0211367 0
0.133741 -0.0215326 0
0.134841 -0.0285401 0
0.136935 -0.024622 0
0.133734 -0.0219852 0
0.131767 -0.0278514 0
0.134994 -0.0289667 0
0.133725 -0.022437 0
0.138019 -0.0298922 0
0.139145 -0.0273376 0
0.122073 -0.025145 0
0.133712 -0.0229662 0
0.118759 -0.0241393 0
0.141265 -0.030654 0
0.139843 -0.0307211 0
0.135185 -0.0295508 0
0.133697 -0.0234943 0
0.140217 -0.029685 0
0.135357 -0.0301442 0
0.133676 -0.0241257 0
0.140796 -0.0310303 0
0 0 0
0.133651 -0.0247554 0
0.13665 -0.0274105 0
0.138786 -0.0293792 0
0.135558 -0.0309444 0
0.133616 -0.0255199 0
0.124649 -0.0274134 0
0.139586 -0.0327528 0
0.133575 -0.0262817 0
0.135727 -0.0317601 0
0.126973 -0.0286398 0
0.138111 -0.0328688 0
0.133519 -0.0272148 0
0.131638 -0.0308468 0
0.131704 -0.0309824 0
0.131798 -0.0311837 0
0.12893 -0.0301291 0
0.138303 -0.0318142 0