# vtk DataFile Version 3.0
File generated from DClib
ASCII

DATASET UNSTRUCTURED_GRID
POINTS 1909 float
50 0 0 
48.75 0 0 
50 1.66667 0 
47.5 0 0 
50 3.33333 0 
46.25 0 0 
50 5 0 
45 0 0 
43.75 0 0 
50 6.66667 0 
43 2 0 
42.5 0 0 
50 8.33333 0 
43 4.66667 0 
41.25 0 0 
41.075 2 0 
50 10 0 
40 0 0 
43 7.33333 0 
39.15 2 0 
38.75 0 0 
43 10 0 
37.5 0 0 
37.225 2 0 
36.25 0 0 
36 4 0 
35.3 2 0 
36 5 0 
35 0 0 
35.325 4 0 
36 6 0 
36 7 0 
34.65 4 0 
36 8 0 
33.75 0 0 
33.975 4 0 
36 9 0 
33.375 2 0 
33.3 4 0 
36 10 0 
32.5 0 0 
32.625 4 0 
33 6 0 
31.95 4 0 
33 7.45455 0 
31.45 2 0 
31.25 0 0 
31.95 6 0 
33 8.79545 0 
31.275 4 0 
33 10 0 
30.6 4 0 
30 0 0 
30.9 6 0 
29.925 4 0 
29.525 2 0 
29.85 6 0 
29.25 4 0 
28.75 0 0 
30 8 0 
30 8.45455 0 
28.575 4 0 
29.625 8 0 
30 8.90909 0 
28.8 6 0 
30 9.25 0 
29.782 8.90909 0 
30 9.59091 0 
29.9487 9.59091 0 
29.25 8 0 
29.7462 9.25 0 
30 9.79545 0 
29.897 9.59091 0 
29.564 8.90909 0 
29.9547 9.79545 0 
29.3462 8.45455 0 
29.84 9.59091 0 
30 10 0 
29.8975 9.79545 0 
29.9882 10 0 
29.9902 10.0098 0 
29.7827 9.59091 0 
29.9765 10 0 
29.9804 10.0196 0 
29.9667 10.0098 0 
29.9591 10 0 
29.9686 10.0196 0 
29.9659 10.0341 0 
29.9569 10.0196 0 
29.9418 10 0 
29.9395 10.0196 0 
29.9515 10.0485 0 
29.932 10.0098 0 
29.9424 10.0341 0 
29.8241 9.79545 0 
29.7181 9.59091 0 
29.9166 10 0 
29.9397 10.0485 0 
29.9222 10.0196 0 
29.9279 10.0485 0 
29.9305 10.0695 0 
29.8914 10 0 
29.9077 10.0341 0 
27.9 4 0 
29.897 10.0196 0 
29.9106 10.0485 0 
29.8817 10.0098 0 
29.907 10.0695 0 
29.8933 10.0485 0 
29.9095 10.0905 0 
29.8719 10.0196 0 
27.6 2 0 
29.8556 10 0 
29.8978 10.0905 0 
29.6531 9.59091 0 
29.3437 8.90909 0 
27.5 0 0 
29.8681 10.0485 0 
29.886 10.0905 0 
29.8574 10.0341 0 
29.4839 9.25 0 
29.8723 10.0695 0 
29.7289 9.79545 0 
29.836 10.0196 0 
29.8687 10.0905 0 
29.8197 10 0 
29.8797 10.1203 0 
29.843 10.0485 0 
29.8513 10.0905 0 
29.81 10.0098 0 
29.8561 10.1203 0 
29.8002 10.0196 0 
29.8221 10.0695 0 
29.8072 10.0485 0 
29.8262 10.0905 0 
29.5782 9.59091 0 
29.8498 10.1502 0 
29.7695 10 0 
29.7858 10.0341 0 
29.838 10.1502 0 
29.8215 10.1203 0 
29.8011 10.0905 0 
29.8262 10.1502 0 
29.7714 10.0485 0 
28.875 8 0 
29.75 10.0196 0 
29.8089 10.1502 0 
29.7654 10.0905 0 
29.7193 10 0 
29.7916 10.1502 0 
29.7505 10.0695 0 
29.8079 10.1921 0 
29.7713 10.1203 0 
29.7096 10.0098 0 
29.6047 9.79545 0 
29.503 9.59091 0 
29.7213 10.0485 0 
29.7665 10.1502 0 
29.6999 10.0196 0 
29.7844 10.1921 0 
29.7296 10.0905 0 
29.6856 10.0341 0 
29.7414 10.1502 0 
29.7497 10.1921 0 
29.6503 10 0 
29.7661 10.2339 0 
29.6712 10.0485 0 
29.6999 10.1203 0 
29.7543 10.2339 0 
29.6796 10.0905 0 
29.7057 10.1502 0 
29.7425 10.2339 0 
29.1235 8.90909 0 
29.6309 10.0196 0 
29.6504 10.0695 0 
29.4146 9.59091 0 
29.7252 10.2339 0 
29.6996 10.1921 0 
29.6701 10.1502 0 
29.7079 10.2339 0 
29.6296 10.0905 0 
29.5813 10 0 
29.6023 10.0485 0 
29.5716 10.0098 0 
29.6828 10.2339 0 
29.7086 10.2914 0 
29.2101 9.25 0 
29.562 10.0196 0 
29.6201 10.1502 0 
29.6578 10.2339 0 
29.4428 9.79545 0 
29.5999 10.1203 0 
29.6849 10.2914 0 
29.6283 10.1921 0 
29.5477 10.0341 0 
29.3259 9.59091 0 
29.5608 10.0905 0 
29.5335 10.0485 0 
29.6221 10.2339 0 
29.6503 10.2914 0 
29.5702 10.1502 0 
29.4881 10 0 
29.5128 10.0695 0 
29.6511 10.3489 0 
29.5866 10.2339 0 
29.6392 10.3489 0 
29.4689 10.0196 0 
29.6002 10.2914 0 
29.6273 10.3489 0 
29.4921 10.0905 0 
29.61 10.3489 0 
29.5286 10.1921 0 
29.5016 10.1502 0 
29.5368 10.2339 0 
29.5926 10.3489 0 
29.4405 10.0485 0 
29.2199 9.59091 0 
29.4626 10.1203 0 
29.3949 10 0 
28.9 8.90909 0 
29.5676 10.3489 0 
29.5291 10.2914 0 
29.3853 10.0098 0 
28.6923 8.45455 0 
29.487 10.2339 0 
29.5426 10.3489 0 
29.3758 10.0196 0 
29.5734 10.4266 0 
29.4331 10.1502 0 
29.3993 10.0905 0 
28.5 8 0 
29.3617 10.0341 0 
29.5496 10.4266 0 
29.5071 10.3489 0 
29.2327 9.79545 0 
29.3475 10.0485 0 
29.1136 9.59091 0 
29.4187 10.2339 0 
29.5148 10.4266 0 
29.4716 10.3489 0 
29.3918 10.1921 0 
29.3271 10.0695 0 
29.4298 10.2914 0 
29.2714 10 0 
29.3406 10.1502 0 
28.9208 9.25 0 
29.3066 10.0905 0 
29.4648 10.4266 0 
29.422 10.3489 0 
29.4958 10.5042 0 
29.2524 10.0196 0 
27.75 6 0 
29.3504 10.2339 0 
29.4837 10.5042 0 
29.4718 10.5042 0 
29.2774 10.1203 0 
29.4543 10.5042 0 
29.3724 10.3489 0 
29.2244 10.0485 0 
29.4369 10.5042 0 
29.3938 10.4266 0 
28.9853 9.59091 0 
29.2481 10.1502 0 
28.6766 8.90909 0 
29.4119 10.5042 0 
29.2934 10.2914 0 
27.225 4 0 
29.148 10 0 
29.2582 10.2339 0 
29.1837 10.0905 0 
29.3869 10.5042 0 
29.1385 10.0098 0 
29.3044 10.3489 0 
29.1291 10.0196 0 
29.2072 10.1921 0 
29.3514 10.5042 0 
29.1152 10.0341 0 
29.3929 10.6071 0 
29.2949 10.4266 0 
29.1013 10.0485 0 
29.3686 10.6071 0 
29.316 10.5042 0 
29.2364 10.3489 0 
28.9623 9.79545 0 
29.1257 10.1502 0 
29.1662 10.2339 0 
29.0811 10.0695 0 
28.8566 9.59091 0 
29.3336 10.6071 0 
29.2666 10.5042 0 
29.0609 10.0905 0 
28.9875 10 0 
29.2835 10.6071 0 
29.1448 10.3489 0 
29.0321 10.1203 0 
29.2173 10.5042 0 
29.1098 10.2914 0 
28.125 8 0 
28.9688 10.0196 0 
29.1594 10.4266 0 
28.611 9.25 0 
29.29 10.71 0 
28.4486 8.90909 0 
29.0443 10.2339 0 
29.0033 10.1502 0 
29.2777 10.71 0 
28.9413 10.0485 0 
29.2128 10.6071 0 
29.2655 10.71 0 
29.1497 10.5042 0 
29.2478 10.71 0 
28.7003 9.59091 0 
29.0533 10.3489 0 
29.2303 10.71 0 
28.9629 10.1921 0 
28.9013 10.0905 0 
29.2051 10.71 0 
29.0822 10.5042 0 
29.1801 10.71 0 
28.827 10 0 
29.1144 10.6071 0 
28.8177 10.0098 0 
28.9225 10.2339 0 
28.8085 10.0196 0 
29.1447 10.71 0 
28.7949 10.0341 0 
28.8443 10.1502 0 
28.977 10.4266 0 
28.9322 10.3489 0 
29.1094 10.71 0 
28.7813 10.0485 0 
28.9912 10.5042 0 
29.1562 10.8438 0 
28.5436 9.59091 0 
28.7615 10.0695 0 
28.8669 10.2914 0 
29.1313 10.8438 0 
28.6184 9.79545 0 
29.0602 10.71 0 
28.2207 8.90909 0 
28.7418 10.0905 0 
28.0378 8.45455 0 
28.9798 10.6071 0 
29.0958 10.8438 0 
29.0112 10.71 0 
28.9005 10.5042 0 
28.7136 10.1203 0 
28.7644 10.2339 0 
28.8113 10.3489 0 
29.0454 10.8438 0 
28.6223 10 0 
28.6854 10.1502 0 
28.2746 9.25 0 
28.9441 10.71 0 
28.6042 10.0196 0 
27.75 8 0 
28.9747 10.8438 0 
28.6459 10.1921 0 
28.5773 10.0485 0 
29.0225 10.9775 0 
28.3532 9.59091 0 
28.7804 10.5042 0 
28.736 10.4266 0 
28.8772 10.71 0 
29.0097 10.9775 0 
28.9971 10.9775 0 
28.799 10.6071 0 
28.9791 10.9775 0 
28.5384 10.0905 0 
28.6064 10.2339 0 
28.6543 10.3489 0 
28.9611 10.9775 0 
28.8769 10.8438 0 
27.9867 8.90909 0 
26.25 0 0 
28.9358 10.9775 0 
28.7871 10.71 0 
28.9106 10.9775 0 
28.6607 10.5042 0 
28.4177 10 0 
26.55 4 0 
28.552 10.2914 0 
28.483 10.1502 0 
28.4087 10.0098 0 
28.8751 10.9775 0 
28.3998 10.0196 0 
28.3866 10.0341 0 
28.8399 10.9775 0 
28.6974 10.71 0 
28.3735 10.0485 0 
28.1625 9.59091 0 
28.7436 10.8438 0 
28.4976 10.3489 0 
28.3543 10.0695 0 
28.791 10.9775 0 
28.4052 10.2339 0 
28.3352 10.0905 0 
28.8519 11.1481 0 
28.1869 9.79545 0 
28.5607 10.6071 0 
28.5053 10.5042 0 
28.7423 10.9775 0 
28.8258 11.1481 0 
28.308 10.1203 0 
28.5787 10.71 0 
27.904 9.25 0 
28.7893 11.1481 0 
28.424 10.4266 0 
27.7528 8.90909 0 
28.2807 10.1502 0 
28.6758 10.9775 0 
27.375 8 0 
28.7383 11.1481 0 
28.1619 10 0 
28.5649 10.8438 0 
28.2425 10.1921 0 
28.6096 10.9775 0 
28.1444 10.0196 0 
28.298 10.3489 0 
28.4605 10.71 0 
26.7 6 0 
27.9315 9.59091 0 
28.3503 10.5042 0 
28.6676 11.1481 0 
28.1187 10.0485 0 
28.2042 10.2339 0 
28.5207 10.9775 0 
28.0813 10.0905 0 
28.6814 11.3186 0 
27.3818 8.45455 0 
28.6679 11.3186 0 
28.1516 10.2914 0 
28.5703 11.1481 0 
28.6544 11.3186 0 
28.6358 11.3186 0 
27.5109 8.90909 0 
28.3072 10.71 0 
28.6173 11.3186 0 
28.2524 10.6071 0 
28.4322 10.9775 0 
28.028 10.1502 0 
28.5915 11.3186 0 
28.0989 10.3489 0 
28.33 10.8438 0 
28.5658 11.3186 0 
28.153 10.5042 0 
27.9061 10 0 
27.8975 10.0098 0 
28.5303 11.3186 0 
28.4384 11.1481 0 
27.7002 9.59091 0 
27.889 10.0196 0 
27.8765 10.0341 0 
28.4949 11.3186 0 
28.3154 10.9775 0 
27.9532 10.2339 0 
27.8639 10.0485 0 
28.0276 10.4266 0 
28.1544 10.71 0 
27.8457 10.0695 0 
27.4909 9.25 0 
28.4463 11.3186 0 
27 8 0 
27.8275 10.0905 0 
28.3979 11.3186 0 
27.8015 10.1203 0 
27.6542 9.79545 0 
25.675 2 0 
28.1991 10.9775 0 
27.2691 8.90909 0 
27.9563 10.5042 0 
28.4682 11.5318 0 
28.2625 11.1481 0 
27.7755 10.1502 0 
28.3322 11.3186 0 
27.8502 10.3489 0 
28.4401 11.5318 0 
25.875 4 0 
27.7391 10.1921 0 
28.4019 11.5318 0 
28.0268 10.8438 0 
28.2668 11.3186 0 
27.9602 10.71 0 
28.3498 11.5318 0 
27.4223 9.59091 0 
27.7026 10.2339 0 
27.5927 10 0 
28.0486 10.9775 0 
27.8616 10.6071 0 
27.5762 10.0196 0 
28.1794 11.3186 0 
28.2786 11.5318 0 
27.5519 10.0485 0 
27.6524 10.2914 0 
28.0319 11.1481 0 
27.7108 10.5042 0 
27.5167 10.0905 0 
27.0169 8.90909 0 
28.0924 11.3186 0 
27.6021 10.3489 0 
27.8988 10.9775 0 
28.1818 11.5318 0 
27.7667 10.71 0 
26.625 8 0 
28.255 11.745 0 
27.4664 10.1502 0 
28.2402 11.745 0 
28.2256 11.745 0 
28.2059 11.745 0 
27.978 11.3186 0 
26.7234 8.45455 0 
27.0259 9.25 0 
27.5342 10.4266 0 
28.1863 11.745 0 
27.1442 9.59091 0 
28.0516 11.5318 0 
28.1598 11.745 0 
27.3959 10.2339 0 
28.1334 11.745 0 
27.2793 10 0 
27.2714 10.0098 0 
27.2635 10.0196 0 
27.7086 10.9775 0 
27.6431 10.8438 0 
28.0975 11.745 0 
27.8643 11.3186 0 
27.4661 10.5042 0 
27.2518 10.0341 0 
27.2401 10.0485 0 
28.0617 11.745 0 
26.7648 8.90909 0 
27.5255 10.71 0 
27.7353 11.1481 0 
27.2231 10.0695 0 
28.0133 11.745 0 
27.2061 10.0905 0 
27.8791 11.5318 0 
27.2986 10.3489 0 
27.1818 10.1203 0 
27.9651 11.745 0 
27.3758 10.6071 0 
27.0077 9.79545 0 
27.7174 11.3186 0 
27.1576 10.1502 0 
25 0 0 
27.5193 10.9775 0 
27.9003 11.745 0 
27.1236 10.1921 0 
26.25 8 0 
27.9939 12.0061 0 
25.65 6 0 
27.8359 11.745 0 
26.8136 9.59091 0 
27.0896 10.2339 0 
27.9626 12.0061 0 
27.2853 10.71 0 
25.2 4 0 
27.5713 11.3186 0 
27.9218 12.0061 0 
26.4998 8.90909 0 
27.167 10.5042 0 
27.6541 11.5318 0 
27.0427 10.2914 0 
27.7503 11.745 0 
26.9033 10 0 
27.8677 12.0061 0 
26.8882 10.0196 0 
26.8659 10.0485 0 
26.9958 10.3489 0 
27.2836 10.9775 0 
27.6652 11.745 0 
27.3609 11.1481 0 
27.7955 12.0061 0 
26.499 9.25 0 
[...]
POINT_DATA 1909
SCALARS phi float 1
LOOKUP_TABLE default
VECTORS Displacement float
0 0 0
0 0 0
0 -0.00600769 0
0 0 0
0 -0.00830374 0
0 0 0
0 -0.00719389 0
0 0 0
0 0 0
0 -0.00302367 0
0.017046 -0.00520468 0
0 0 0
0 0.00394744 0
0.0330533 -0.00309589 0
0 0 0
0.0231402 -0.00509546 0
0 0.0128813 0
0 0 0
0.0438559 0.00732769 0
0.0298413 -0.00516828 0
0 0 0
0.0496105 0.0239011 0
0 0 0
0.0370099 -0.00554948 0
0 0 0
0.0701224 -0.00341003 0
0.0442502 -0.00624419 0
0.0825954 0.000860702 0
0 0 0
0.0752316 -0.00376595 0
0.0915179 0.00660314 0
0.0972685 0.0134622 0
0.0802547 -0.00421213 0
0.100731 0.0206918 0
0 0 0
0.0852533 -0.00492669 0
0.103471 0.0282991 0
0.0511015 -0.00720899 0
0.0901143 -0.00574645 0
0.106063 0.0373383 0
0 0 0
0.0947447 -0.0067385 0
0.12104 0.00351564 0
0.0991449 -0.0078317 0
0.132576 0.0158583 0
0.0571317 -0.0083882 0
0 0 0
0.131263 -0.000493719 0
0.137556 0.0327026 0
0.103222 -0.00904983 0
0.138591 0.0568217 0
0.106976 -0.0103585 0
0 0 0
0.139907 -0.00468901 0
0.110362 -0.0117587 0
0.0619826 -0.00973619 0
0.14721 -0.00925372 0
0.113354 -0.013243 0
0 0 0
0.172294 0.00176564 0
0.177287 0.00569279 0
0.11596 -0.0147913 0
0.17589 -0.00133257 0
0.182184 0.010686 0
0.153138 -0.0141667 0
0.185889 0.0177767 0
0.184797 0.00759836 0
0.189729 0.0278725 0
0.190532 0.0255017 0
0.179061 -0.00451174 0
0.189357 0.0123645 0
0.190666 0.0348316 0
0.191308 0.0235174 0
0.187147 0.0048442 0
0.19144 0.0324382 0
0.183951 -0.000868135 0
0.19207 0.0215183 0
0.190974 0.0427479 0
0.192464 0.0296561 0
0.191328 0.0428894 0
0.321953 0.0900577 0
0.192778 0.0197508 0
0.191731 0.0428504 0
0.42803 0.127071 0
0.319652 0.0887883 0
0.192357 0.0427412 0
0.425752 0.125773 0
0.433061 0.126653 0
0.423108 0.12421 0
0.193038 0.0424875 0
0.418568 0.122009 0
0.433245 0.125372 0
0.315435 0.0862703 0
0.430963 0.124043 0
0.19385 0.0266347 0
0.193497 0.0179598 0
0.194045 0.0417871 0
0.433029 0.124225 0
0.413846 0.119595 0
0.432854 0.123185 0
0.433596 0.123898 0
0.195087 0.0410359 0
0.426091 0.120512 0
0.118126 -0.0164277 0
0.406957 0.11601 0
0.432324 0.121901 0
0.309311 0.0817887 0
0.433338 0.122017 0
0.431626 0.120519 0
0.432826 0.122339 0
0.400138 0.112376 0
0.0653657 -0.0112247 0
0.196509 0.0395116 0
0.432763 0.12144 0
0.194155 0.0163135 0
0.189437 0.00228655 0
0 0 0
0.430079 0.118418 0
0.432679 0.120531 0
0.41762 0.114948 0
0.192455 0.0081916 0
0.432805 0.119267 0
0.195667 0.0234093 0
0.390897 0.107001 0
0.432525 0.119128 0
0.197903 0.0380503 0
0.431807 0.120241 0
0.427907 0.116089 0
0.432356 0.117675 0
0.301086 0.074763 0
0.431661 0.118323 0
0.381787 0.101755 0
0.43114 0.11483 0
0.424132 0.112416 0
0.432035 0.115488 0
0.194857 0.0145834 0
0.430543 0.117963 0
0.19967 0.0357264 0
0.404453 0.10612 0
0.430461 0.116966 0
0.43141 0.115347 0
0.431661 0.11325 0
0.430377 0.115947 0
0.41956 0.108573 0
0.182086 -0.00770739 0
0.369628 0.0944134 0
0.43024 0.114423 0
0.430818 0.110052 0
0.201294 0.0335542 0
0.430097 0.112882 0
0.426583 0.10797 0
0.42874 0.114628 0
0.430972 0.110885 0
0.290016 0.0650089 0
0.197902 0.0199513 0
0.195506 0.0129428 0
0.412429 0.102946 0
0.429878 0.110628 0
0.357725 0.0874007 0
0.428579 0.112526 0
0.429616 0.106811 0
0.384925 0.0934606 0
0.429652 0.10838 0
0.428323 0.109406 0
0.203235 0.0306738 0
0.426905 0.111172 0
0.404495 0.097284 0
0.429984 0.104514 0
0.426812 0.110096 0
0.427174 0.102285 0
0.429318 0.105194 0
0.426718 0.109025 0
0.19155 -0.00021927 0
0.342016 0.0781744 0
0.416741 0.097986 0
0.196255 0.0111808 0
0.426579 0.107455 0
0.427925 0.104924 0
0.428984 0.102077 0
0.426439 0.105898 0
0.423868 0.0977127 0
0.204887 0.0279743 0
0.392806 0.0895265 0
0.275175 0.0527472 0
0.426238 0.103664 0
0.424469 0.106377 0
0.195275 0.00427824 0
0.326867 0.0694824 0
0.428352 0.0978283 0
0.426036 0.101466 0
0.200473 0.0162074 0
0.427036 0.0958457 0
0.424289 0.104244 0
0.427346 0.0987486 0
0.357156 0.076826 0
0.196981 0.00948904 0
0.418003 0.0915214 0
0.380346 0.0818489 0
0.425747 0.0983984 0
0.424021 0.101166 0
0.427539 0.0937162 0
0.206768 0.0248183 0
0.39853 0.084246 0
0.422107 0.101641 0
0.425457 0.0954105 0
0.422013 0.100583 0
0.307565 0.0587945 0
0.423628 0.0968408 0
0.421919 0.0995371 0
0.410875 0.0852792 0
0.421781 0.0980193 0
0.426457 0.0906044 0
0.425685 0.0883007 0
0.425058 0.0913507 0
0.421643 0.0965247 0
0.362642 0.0719455 0
0.197861 0.00762021 0
0.419019 0.0844404 0
0.20826 0.0218302 0
0.193574 -0.0027149 0
0.421445 0.094398 0
0.423071 0.0909605 0
0.256463 0.0386497 0
0.18936 -0.00726115 0
0.424674 0.0874592 0
0.421248 0.0923168 0
0.289927 0.0490737 0
0.419116 0.0954231 0
0.423012 0.0829835 0
0.399343 0.0771271 0
0.184739 -0.0110095 0
0.319893 0.0567081 0
0.418937 0.093386 0
0.420971 0.0894252 0
0.203227 0.0120306 0
0.34434 0.0622475 0
0.198766 0.00583249 0
0.424079 0.0823184 0
0.418674 0.0904833 0
0.4207 0.0866191 0
0.424161 0.0802641 0
0.368036 0.0663177 0
0.42232 0.0832739 0
0.209894 0.018507 0
0.417683 0.0761528 0
0.197917 0.000354816 0
0.386087 0.0688599 0
0.418294 0.0864441 0
0.420323 0.0828261 0
0.416188 0.089417 0
0.269565 0.0380982 0
0.157615 -0.0193569 0
0.423388 0.0774469 0
0.416103 0.0884253 0
0.416018 0.0874476 0
0.401089 0.0695883 0
0.415895 0.0860391 0
0.419953 0.0791751 0
0.320051 0.050528 0
0.415771 0.0846552 0
0.417755 0.0809858 0
0.19986 0.00378619 0
0.410735 0.06931 0
0.195452 -0.00521714 0
0.415594 0.0826959 0
0.421343 0.0735931 0
0.119892 -0.018098 0
0.211146 0.015338 0
0.421753 0.0712171 0
0.365993 0.0585452 0
0.415416 0.0807806 0
0.236902 0.0241745 0
0.419459 0.07436 0
0.253507 0.0290531 0
0.416854 0.0674718 0
0.415163 0.0781243 0
0.276599 0.0351 0
0.412573 0.0818365 0
0.417016 0.0738384 0
0.296988 0.0397165 0
0.412411 0.0799531 0
0.41491 0.0755433 0
0.418985 0.0697784 0
0.205954 0.00713301 0
0.398487 0.0607605 0
0.419276 0.0652235 0
0.322403 0.0446245 0
0.200982 0.00181223 0
0.412175 0.0772943 0
0.414555 0.0720461 0
0.343993 0.0481612 0
0.212461 0.0117255 0
0.411834 0.0736103 0
0.418337 0.0638784 0
0.366333 0.0506473 0
0.414203 0.0686744 0
0.41921 0.0617841 0
0.187156 -0.0142981 0
0.238096 0.0197238 0
0.416047 0.0648042 0
0.20039 -0.00375978 0
0.409026 0.0746072 0
0.197176 -0.00780042 0
0.413915 0.0578133 0
0.383398 0.0519638 0
0.408954 0.0736972 0
0.270968 0.0276842 0
0.411351 0.0686309 0
0.408882 0.0728002 0
0.41372 0.0642289 0
0.408778 0.0715192 0
0.202322 -0.000498938 0
0.417633 0.0583642 0
0.408673 0.0702598 0
0.397675 0.0516284 0
0.314803 0.0360613 0
0.408521 0.068486 0
0.413247 0.0599861 0
0.408368 0.0667498 0
0.213495 0.00828645 0
0.410678 0.0621043 0
0.222443 0.0112245 0
0.406535 0.050529 0
0.228606 0.0129139 0
0.408149 0.0643483 0
0.239839 0.0158262 0
0.359586 0.0416141 0
0.414884 0.0538531 0
0.415995 0.0515374 0
0.40793 0.0620132 0
0.251309 0.0184223 0
0.412636 0.0545621 0
0.404654 0.0657226 0
0.203647 -0.00275642 0
0.269819 0.02228 0
0.411818 0.047976 0
0.404519 0.0639953 0
0.208473 0.0012062 0
0.40762 0.0588566 0
0.198767 -0.0103774 0
0.287683 0.0253789 0
0.193665 -0.0137834 0
0.409775 0.0538637 0
0.404323 0.0615876 0
0.40731 0.0558165 0
0.41207 0.0494738 0
0.31159 0.0288086 0
0.3925 0.0419927 0
0.413468 0.0451665 0
0.404043 0.0582794 0
0.214501 0.0041954 0
0.332824 0.031167 0
0.202714 -0.00816074 0
0.406887 0.051818 0
0.221701 0.00615009 0
0.18919 -0.017648 0
0.403649 0.0538395 0
0.356025 0.0326084 0
0.234542 0.00892253 0
0.400461 0.0573297 0
0.205183 -0.00543607 0
0.411369 0.0431774 0
0.412702 0.0412301 0
0.406473 0.048019 0
0.400399 0.0564969 0
0.400337 0.0556774 0
0.408653 0.0439356 0
0.400249 0.0545253 0
0.259786 0.0135896 0
0.37416 0.0331218 0
0.407669 0.037682 0
0.400161 0.0533952 0
0.403107 0.0480651 0
0.200214 -0.0130355 0
0 0 0
0.400034 0.0518221 0
0.405936 0.0431866 0
0.399908 0.0502869 0
0.410643 0.0374399 0
0.215335 0.000305697 0
0.121192 -0.0198753 0
0.389653 0.0320706 0
0.299436 0.019369 0
0.216927 0.000690234 0
0.399731 0.048183 0
0.218651 0.00107652 0
0.221588 0.00170477 0
0.399556 0.046146 0
0.405437 0.0386713 0
0.225385 0.00251445 0
0.206632 -0.00808054 0
0.402397 0.0408503 0
0.399284 0.0305038 0
0.232615 0.00400565 0
0.399316 0.0434142 0
0.345598 0.0234078 0
0.241171 0.00559757 0
0.395393 0.047356 0
0.210754 -0.00590328 0
0.407481 0.0326279 0
0.408984 0.0306534 0
0.399084 0.0407981 0
0.395291 0.0457997 0
0.255718 0.00805016 0
0.404856 0.0331435 0
0.204933 -0.0128902 0
0.395147 0.0436862 0
0.404842 0.0275788 0
0.201512 -0.0156902 0
0.271102 0.0101133 0
0.398778 0.0373836 0
0.190951 -0.0209863 0
0.394947 0.0408399 0
0.216006 -0.00437953 0
0.401539 0.0322546 0
0.293358 0.01249 0
0.39849 0.0341573 0
0.217475 -0.00422859 0
0.382423 0.02275 0
0.40438 0.0280719 0
0.160589 -0.0247681 0
0.20824 -0.0112341 0
0.406421 0.024532 0
0.394674 0.0370826 0
0.220573 -0.00387794 0
0.314405 0.0139444 0
0.398129 0.0300712 0
0.228313 -0.00286406 0
0.390421 0.0381382 0
0.196912 -0.0203735 0
0.390379 0.0374076 0
0.33913 0.0145703 0
0.394313 0.0322648 0
0.390337 0.0366914 0
0.390281 0.0357079 0
0.202661 -0.0184381 0
0.40379 0.0220305 0
0.390226 0.034747 0
0.405396 0.0204494 0
0.397804 0.0262609 0
0.246214 -0.000670511 0
0.390152 0.0334335 0
0.359424 0.0143748 0
0.400627 0.0224861 0
0.390078 0.0321568 0
0.39996 0.0175515 0
0.216593 -0.00883734 0
0.216958 -0.00886971 0
0.389979 0.0304314 0
0.393862 0.0262987 0
0.209682 -0.0143621 0
0.217316 -0.00890765 0
0.217961 -0.00893033 0
0.389884 0.0287658 0
0.397411 0.0215672 0
0.279826 0.00261392 0
0.218683 -0.00894074 0
0.377735 0.0126503 0
0.403108 0.0165241 0
0.220218 -0.00883335 0
0.207025 -0.0180251 0
0.389759 0.0265526 0
0.192342 -0.0243427 0
0.222222 -0.00863325 0
0.389642 0.024433 0
0.226321 -0.00812081 0
0.213011 -0.0141201 0
0.0670362 -0.0128321 0
0.397072 0.017195 0
0.203655 -0.0211733 0
0.38961 0.0106324 0
0.384918 0.0278515 0
0.393342 0.0191616 0
0.231831 -0.00740387 0
0.389491 0.021673 0
0.32629 0.00507975 0
0.384858 0.0265122 0
0.122073 -0.0216475 0
0.241946 -0.00618271 0
0.384775 0.0247535 0
0.399695 0.0115741 0
0.389353 0.0190474 0
0.401451 0.0099093 0
0.384663 0.0224395 0
0.211158 -0.0180869 0
0.254038 -0.00502935 0
0.217106 -0.0140317 0
0.396715 0.0118632 0
0.396559 0.00721681 0
0.217636 -0.0141769 0
0.389175 0.0156952 0
0.384518 0.0194221 0
0.21848 -0.0143894 0
0.273133 -0.00367539 0
0.392766 0.0107819 0
0.36874 0.0033759 0
0.220127 -0.0146371 0
0.204531 -0.0240035 0
0.38901 0.0125025 0
0.292816 -0.0031229 0
0.396313 0.00678186 0
0.384335 0.0155509 0
0.398656 0.00374805 0
0.193454 -0.0277134 0
0.379255 0.0184884 0
0.224277 -0.0147601 0
0.379241 0.0178692 0
0.379228 0.0172613 0
0.379212 0.016453 0
0.388803 0.00847055 0
0.19911 -0.0270031 0
0.208852 -0.0237036 0
0.317998 -0.00344812 0
0.379197 0.0156608 0
0.212392 -0.0217839 0
0.38411 0.0106742 0
0.379178 0.0145995 0
0.23536 -0.0144861 0
0.37916 0.0135617 0
0.21759 -0.019018 0
0.217783 -0.0191089 0
0.217989 -0.019197 0
0.395649 0.000565786 0
0.397466 -0.000835658 0
0.379135 0.0121734 0
0.38858 0.00457334 0
0.340155 -0.00468654 0
0.218283 -0.0193322 0
0.218581 -0.0194675 0
0.37911 0.0108192 0
0.205242 -0.0268209 0
0.390626 -0.00329175 0
0.392045 0.000798868 0
0.219054 -0.0196511 0
0.379073 0.0090223 0
0.219512 -0.0198445 0
0.383839 0.00459532 0
0.26058 -0.0138036 0
0.220322 -0.0200753 0
0.379036 0.00727117 0
0.361744 -0.00757264 0
0.215341 -0.023379 0
0.38828 -0.000326952 0
0.221249 -0.0202937 0
0 0 0
0.394823 -0.00536445 0
0.378984 0.00497088 0
0.223298 -0.0204441 0
0.194225 -0.0310832 0
0.373084 0.00830579 0
0.162039 -0.0303572 0
0.378928 0.00272227 0
0.213491 -0.0261405 0
0.226123 -0.020496 0
0.373065 0.00711366 0
0.376657 -0.0105629 0
0.122472 -0.0235591 0
0.387935 -0.00509 0
0.373037 0.00558961 0
0.205834 -0.0297621 0
0.303142 -0.013803 0
0.383465 -0.00298439 0
0.231991 -0.0203603 0
0.378845 -0.000205099 0
0.218407 -0.0246043 0
0.372998 0.00361306 0
0.218652 -0.0248205 0
0.219082 -0.0251232 0
0.240042 -0.0201338 0
0.392694 -0.0125746 0
0.37875 -0.00308043 0
0.390866 -0.0110754 0
0.372946 0.00103707 0
0.210222 -0.030055 0
0.219763 -0.0255574 0
0.385937 -0.0150389 0
0.387427 -0.0109695 0
0.254061 -0.0199567 0
0.372878 -0.00231916 0
0.378597 -0.00678423 0
0.220826 -0.0261879 0
0.349986 -0.0173753 0
0.206251 -0.0326937 0
0.200341 -0.0336288 0
0.214261 -0.0304563 0
0.382856 -0.0123395 0
0.270418 -0.0203703 0
0.194729 -0.0344597 0
0.366764 -0.00131556 0
0.222891 -0.0270622 0
0.37842 -0.0104168 0
0.366765 -0.00190941 0
0.372776 -0.00667748 0
0.389104 -0.0193033 0
0.366766 -0.00249626 0
0.386849 -0.0166626 0
0.366767 -0.00324551 0
0.366768 -0.00398625 0
0.36677 -0.00495027 0
0.218972 -0.0300605 0
0.293541 -0.0218256 0
0.219112 -0.0301692 0
0.219251 -0.0302787 0
0.36677 -0.00590372 0
0.219441 -0.0304431 0
0.228539 -0.0281941 0
0.378159 -0.0150174 0
0.21963 -0.0306087 0
0.366767 -0.00715945 0
0.219893 -0.030852 0
0.372603 -0.0122892 0
0.366762 -0.00840213 0
0.220158 -0.0310974 0
0.220525 -0.0314504 0
0.206521 -0.0357832 0
0.315838 -0.0244433 0
0.366747 -0.0100429 0
0.387879 -0.0247321 0
0.385915 -0.0235428 0
0.220891 -0.0318071 0
0.377855 -0.0195057 0
0.366728 -0.0116667 0
0.377934 -0.0262797 0
0.216957 -0.0338883 0
0.221418 -0.0323026 0
0.381815 -0.0235883 0
0.244177 -0.0298236 0
0.366693 -0.0138017 0
0.214794 -0.035446 0
0.221931 -0.0328087 0
0.194927 -0.0378282 0
0.372302 -0.0193957 0
0.122436 -0.0254078 0
0.36665 -0.015912 0
0.339869 -0.0289564 0
0.210905 -0.0371801 0
0.22285 -0.0334498 0
0.377408 -0.0250591 0
0.35946 -0.0122774 0
0.384767 -0.0301264 0
0.366581 -0.0186622 0
0.359464 -0.0135125 0
0.223981 -0.0340718 0
0.206609 -0.038862 0
0.359465 -0.0150403 0
0.219476 -0.036242 0
0.219684 -0.0364631 0
0.3665 -0.0213712 0
0.358055 -0.0335386 0
0.277603 -0.0328285 0
0.359461 -0.0169765 0
0.219997 -0.0367917 0
0.226711 -0.0347274 0
0.376893 -0.0304564 0
0.220454 -0.0372738 0
0.200654 -0.0402602 0
0.371775 -0.0281832 0
0.359447 -0.0194668 0
0.366372 -0.0248495 0
0.230657 -0.0353437 0
0.221107 -0.0379703 0
0.161968 -0.0360968 0
0.381712 -0.0379002 0
0.214909 -0.0403856 0
0.359413 -0.022687 0
0.380131 -0.0367749 0
0.194874 -0.0412027 0
0.366222 -0.0282625 0
0.37093 -0.0396395 0
0.221991 -0.0389761 0
0.238792 -0.036182 0
0.206518 -0.0421284 0
0.376156 -0.0369758 0
0.359341 -0.0268378 0
0 0 0
0.365994 -0.0325648 0
0.324533 -0.0390847 0
0.352112 -0.0230244 0
0.223281 -0.0404 0
0.249907 -0.0373872 0
0.352116 -0.0236815 0
0.352119 -0.0243338 0
0.0667819 -0.0145123 0
0.219377 -0.0424004 0
0.352122 -0.0251302 0
0.370882 -0.0387789 0
0.21949 -0.0425191 0
0.219603 -0.0426382 0
0.352124 -0.0259209 0
0.376349 -0.0449746 0
0.21976 -0.0428149 0
0.3592 -0.0321323 0
0.365728 -0.03677 0
0.352125 -0.0269112 0
0.219915 -0.0429925 0
0.375332 -0.0432711 0
0.220133 -0.0432521 0
0.352123 -0.027894 0
0.220348 -0.0435137 0
0.267713 -0.0398049 0
0.352119 -0.0291471 0
0.225878 -0.0424304 0
0.220645 -0.0438916 0
0.210655 -0.0451387 0
0.121895 -0.0274336 0
0.352113 -0.0303894 0
0.206238 -0.0453796 0
0.220937 -0.0442736 0
0.194547 -0.0445681 0
0.352099 -0.0319885 0
0.221334 -0.0448171 0
0.365338 -0.0419668 0
0.214608 -0.0460082 0
0.2169 -0.0457921 0
0.352082 -0.0335713 0
0.22172 -0.0453677 0
0.358937 -0.0387812 0
0.287405 -0.0436315 0
0.352051 -0.0356126 0
0.375809 -0.0514208 0
0.222232 -0.0461324 0
0.374047 -0.0506913 0
0.200076 -0.0469125 0
0.233155 -0.0456677 0
0.359751 -0.0507588 0
0.352014 -0.037629 0
0.222721 -0.0469093 0
0.36489 -0.0470215 0
0.369397 -0.0511793 0
0.351953 -0.0402161 0
0.223385 -0.0479465 0
0.311213 -0.0498575 0
0.205738 -0.0488426 0
0.343478 -0.0354443 0
0.358474 -0.0469713 0
0.218747 -0.0492784 0
0.35188 -0.0427661 0
0.343484 -0.0368547 0
0.218913 -0.0495123 0
0.224031 -0.0489984 0
0.219161 -0.0498603 0
0.19398 -0.047933 0
0.343487 -0.0385216 0
0.364247 -0.0531231 0
0.372496 -0.0577367 0
0.219519 -0.0503704 0
0.351766 -0.0460043 0
0.343484 -0.0405459 0
0.225 -0.0504129 0
0.253655 -0.0513754 0
0.220019 -0.0511072 0
0.213819 -0.0515553 0
0.331613 -0.0566947 0
0.343469 -0.0430542 0
0.351631 -0.0491874 0
0.220702 -0.0521565 0
0.226166 -0.0518617 0
0.363511 -0.0590393 0
0.343434 -0.0461997 0
0.205043 -0.0522836 0
0.357685 -0.0568263 0
0.351429 -0.053172 0
0.221618 -0.0536316 0
0.120913 -0.0293097 0
0.160394 -0.0419406 0
0.36751 -0.0655338 0
0.229526 -0.0536292 0
0.209177 -0.0539525 0
0.343362 -0.0501594 0
0.367064 -0.0653021 0
0.348785 -0.0652881 0
0.193164 -0.0512798 0
0.351193 -0.0570751 0
0.22281 -0.0556959 0
0.362471 -0.066012 0
0.217512 -0.056027 0
0.334709 -0.047683 0
0.217598 -0.0561488 0
0.217683 -0.0562709 0
0.234721 -0.0555707 0
0.198646 -0.053577 0
0.334713 -0.0484429 0
0.292945 -0.0609574 0
0.217803 -0.0564513 0
0.343225 -0.0551272 0
0.217924 -0.0566322 0
0.334716 -0.0491986 0
0.218093 -0.0568955 0
0.334718 -0.0500775 0
0.218262 -0.0571602 0
0.350846 -0.0618757 0
0.334719 -0.0509514 0
0.218498 -0.0575401 0
0.334718 -0.0519961 0
0.218731 -0.0579228 0
0.204069 -0.0559535 0
0.334716 -0.0530341 0
0.212439 -0.0577227 0
0.358008 -0.0724265 0
0.219051 -0.058465 0
0.356397 -0.0684014 0
0.33471 -0.0543037 0
0.224253 -0.0585888 0
0.219367 -0.0590131 0
0.245288 -0.0585482 0
0.34298 -0.0612996 0
0.334701 -0.0555642 0
0.350447 -0.0665609 0
0.36131 -0.0727527 0
0.214505 -0.0589141 0
0 0 0
0.219785 -0.0597822 0
0.334685 -0.0571307 0
0.19212 -0.054615 0
0.220193 -0.0605639 0
0.334665 -0.0586842 0
0.334632 -0.0606318 0
0.220719 -0.0616483 0
0.259299 -0.0628092 0
0.349882 -0.0722136 0
0.334592 -0.0625604 0
0.342554 -0.0688542 0
0.221208 -0.0627626 0
0.227032 -0.0627834 0
0.359963 -0.0804244 0
0.202898 -0.0595911 0
0.33453 -0.0649821 0
0.359571 -0.080545 0
0.333745 -0.0757023 0
0.119397 -0.031385 0
0.221807 -0.0642865 0
0.215511 -0.0634208 0
0.334456 -0.0673756 0
0.215651 -0.0636642 0
0.349239 -0.077706 0
0.215857 -0.0640258 0
0.324499 -0.0615619 0
0.278941 -0.0697568 0
0.354383 -0.0816437 0
0.216152 -0.064555 0
0.222297 -0.0658519 0
0.334345 -0.0703675 0
0.324504 -0.0632107 0
0.210536 -0.0637716 0
0.190857 -0.0579174 0
0.216558 -0.065319 0
0.324504 -0.0650735 0
0.196397 -0.0602317 0
0.341845 -0.0779283 0
0.206173 -0.0635622 0
0.334214 -0.0733172 0
0.2171 -0.0664077 0
0.222881 -0.067881 0
0.324495 -0.0672353 0
0.357395 -0.08773 0
0.236072 -0.0698412 0
0.348359 -0.0841856 0
0.324472 -0.0698034 0
0.217787 -0.0679403 0
0.201389 -0.06346 0
0.298734 -0.0784282 0
0.334022 -0.0769689 0
0.223411 -0.0699286 0
0.157346 -0.0477855 0
0.324427 -0.0729087 0
0.333801 -0.0805586 0
0.218602 -0.0700707 0
0.0644832 -0.0161598 0
0.347373 -0.0904535 0
0.324344 -0.0767047 0
0.189377 -0.061193 0
0.22423 -0.0726313 0
0.340702 -0.0885821 0
0.333483 -0.084942 0
0.348675 -0.094365 0
0.21288 -0.0705978 0
0.212946 -0.0707221 0
0.213011 -0.0708467 0
0.213107 -0.0710306 0
0.318065 -0.0897397 0
0.213201 -0.0712151 0
0.219534 -0.0729822 0
0.351249 -0.0961711 0
0.213336 -0.0714833 0
0.324198 -0.0813612 0
0.213469 -0.0717527 0
0.213656 -0.0721383 0
0.207897 -0.0703244 0
0.199686 -0.0672756 0
0.314037 -0.0752999 0
0.225466 -0.0754126 0
0.213838 -0.0725264 0
0.117467 -0.0332004 0
0.333119 -0.0892357 0
0.31404 -0.0761949 0
0.261103 -0.0820843 0
0.214089 -0.0730731 0
0.314042 -0.0770869 0
0.345972 -0.0976288 0
0.214331 -0.0736244 0
0.314042 -0.0780787 0
0.31404 -0.0790668 0
0.214655 -0.0743893 0
0.323949 -0.087055 0
0.314036 -0.0801939 0
0.209358 -0.0728987 0
0.214963 -0.0751621 0
0.314029 -0.0813162 0
0.220602 -0.0768959 0
0.332609 -0.0943894 0
0.193352 -0.0668426 0
0.314018 -0.0826273 0
0.187706 -0.0644172 0
0.331288 -0.0997452 0
0.229637 -0.0790698 0
0.215361 -0.0762184 0
0.314003 -0.083932 0
0.338915 -0.100772 0
0.215738 -0.077286 0
0.31398 -0.0854872 0
0.344418 -0.104622 0
0 0 0
0.313952 -0.0870334 0
0.323537 -0.0939529 0
0.33203 -0.0994175 0
0.216188 -0.0787304 0
0.313911 -0.0889036 0
0.197592 -0.0713053 0
0.236358 -0.0835081 0
0.313862 -0.0907606 0
0.216616 -0.080196 0
0.20141 -0.0737899 0
0.221646 -0.082157 0
0.313791 -0.0930255 0
0.209355 -0.0782325 0
0.209476 -0.0784805 0
0.209651 -0.0788481 0
0.204741 -0.0766773 0
0.331239 -0.105337 0
0.217113 -0.0821563 0
0.337978 -0.110472 0
0.209899 -0.0793847 0
0.313709 -0.095271 0
0.299417 -0.100196 0
0.185829 -0.0675922 0
0.322873 -0.102189 0
0.210241 -0.0801564 0
0.341804 -0.112501 0