# vtk DataFile Version 3.0
File generated from DClib
ASCII

DATASET UNSTRUCTURED_GRID
POINTS 1909 float
50 0 0 
48.75 0 0 
50 1.66667 0 
47.5 0 0 
50 3.33333 0 
46.25 0 0 
50 5 0 
45 0 0 
43.75 0 0 
50 6.66667 0 
43 2 0 
42.5 0 0 
50 8.33333 0 
43 4.66667 0 
41.25 0 0 
41.075 2 0 
50 10 0 
40 0 0 
43 7.33333 0 
39.15 2 0 
38.75 0 0 
43 10 0 
37.5 0 0 
37.225 2 0 
36.25 0 0 
36 4 0 
35.3 2 0 
36 5 0 
35 0 0 
35.325 4 0 
36 6 0 
36 7 0 
34.65 4 0 
36 8 0 
33.75 0 0 
33.975 4 0 
36 9 0 
33.375 2 0 
33.3 4 0 
36 10 0 
32.5 0 0 
32.625 4 0 
33 6 0 
31.95 4 0 
33 7.45455 0 
31.45 2 0 
31.25 0 0 
31.95 6 0 
33 8.79545 0 
31.275 4 0 
33 10 0 
30.6 4 0 
30 0 0 
30.9 6 0 
29.925 4 0 
29.525 2 0 
29.85 6 0 
29.25 4 0 
28.75 0 0 
30 8 0 
30 8.45455 0 
28.575 4 0 
29.625 8 0 
30 8.90909 0 
28.8 6 0 
30 9.25 0 
29.782 8.90909 0 
30 9.59091 0 
29.9487 9.59091 0 
29.25 8 0 
29.7462 9.25 0 
30 9.79545 0 
29.897 9.59091 0 
29.564 8.90909 0 
29.9547 9.79545 0 
29.3462 8.45455 0 
29.84 9.59091 0 
30 10 0 
29.8975 9.79545 0 
29.9882 10 0 
29.9902 10.0098 0 
29.7827 9.59091 0 
29.9765 10 0 
29.9804 10.0196 0 
29.9667 10.0098 0 
29.9591 10 0 
29.9686 10.0196 0 
29.9659 10.0341 0 
29.9569 10.0196 0 
29.9418 10 0 
29.9395 10.0196 0 
29.9515 10.0485 0 
29.932 10.0098 0 
29.9424 10.0341 0 
29.8241 9.79545 0 
29.7181 9.59091 0 
29.9166 10 0 
29.9397 10.0485 0 
29.9222 10.0196 0 
29.9279 10.0485 0 
29.9305 10.0695 0 
29.8914 10 0 
29.9077 10.0341 0 
27.9 4 0 
29.897 10.0196 0 
29.9106 10.0485 0 
29.8817 10.0098 0 
29.907 10.0695 0 
29.8933 10.0485 0 
29.9095 10.0905 0 
29.8719 10.0196 0 
27.6 2 0 
29.8556 10 0 
29.8978 10.0905 0 
29.6531 9.59091 0 
29.3437 8.90909 0 
27.5 0 0 
29.8681 10.0485 0 
29.886 10.0905 0 
29.8574 10.0341 0 
29.4839 9.25 0 
29.8723 10.0695 0 
29.7289 9.79545 0 
29.836 10.0196 0 
29.8687 10.0905 0 
29.8197 10 0 
29.8797 10.1203 0 
29.843 10.0485 0 
29.8513 10.0905 0 
29.81 10.0098 0 
29.8561 10.1203 0 
29.8002 10.0196 0 
29.8221 10.0695 0 
29.8072 10.0485 0 
29.8262 10.0905 0 
29.5782 9.59091 0 
29.8498 10.1502 0 
29.7695 10 0 
29.7858 10.0341 0 
29.838 10.1502 0 
29.8215 10.1203 0 
29.8011 10.0905 0 
29.8262 10.1502 0 
29.7714 10.0485 0 
28.875 8 0 
29.75 10.0196 0 
29.8089 10.1502 0 
29.7654 10.0905 0 
29.7193 10 0 
29.7916 10.1502 0 
29.7505 10.0695 0 
29.8079 10.1921 0 
29.7713 10.1203 0 
29.7096 10.0098 0 
29.6047 9.79545 0 
29.503 9.59091 0 
29.7213 10.0485 0 
29.7665 10.1502 0 
29.6999 10.0196 0 
29.7844 10.1921 0 
29.7296 10.0905 0 
29.6856 10.0341 0 
29.7414 10.1502 0 
29.7497 10.1921 0 
29.6503 10 0 
29.7661 10.2339 0 
29.6712 10.0485 0 
29.6999 10.1203 0 
29.7543 10.2339 0 
29.6796 10.0905 0 
29.7057 10.1502 0 
29.7425 10.2339 0 
29.1235 8.90909 0 
29.6309 10.0196 0 
29.6504 10.0695 0 
29.4146 9.59091 0 
29.7252 10.2339 0 
29.6996 10.1921 0 
29.6701 10.1502 0 
29.7079 10.2339 0 
29.6296 10.0905 0 
29.5813 10 0 
29.6023 10.0485 0 
29.5716 10.0098 0 
29.6828 10.2339 0 
29.7086 10.2914 0 
29.2101 9.25 0 
29.562 10.0196 0 
29.6201 10.1502 0 
29.6578 10.2339 0 
29.4428 9.79545 0 
29.5999 10.1203 0 
29.6849 10.2914 0 
29.6283 10.1921 0 
29.5477 10.0341 0 
29.3259 9.59091 0 
29.5608 10.0905 0 
29.5335 10.0485 0 
29.6221 10.2339 0 
29.6503 10.2914 0 
29.5702 10.1502 0 
29.4881 10 0 
29.5128 10.0695 0 
29.6511 10.3489 0 
29.5866 10.2339 0 
29.6392 10.3489 0 
29.4689 10.0196 0 
29.6002 10.2914 0 
29.6273 10.3489 0 
29.4921 10.0905 0 
29.61 10.3489 0 
29.5286 10.1921 0 
29.5016 10.1502 0 
29.5368 10.2339 0 
29.5926 10.3489 0 
29.4405 10.0485 0 
29.2199 9.59091 0 
29.4626 10.1203 0 
29.3949 10 0 
28.9 8.90909 0 
29.5676 10.3489 0 
29.5291 10.2914 0 
29.3853 10.0098 0 
28.6923 8.45455 0 
29.487 10.2339 0 
29.5426 10.3489 0 
29.3758 10.0196 0 
29.5734 10.4266 0 
29.4331 10.1502 0 
29.3993 10.0905 0 
28.5 8 0 
29.3617 10.0341 0 
29.5496 10.4266 0 
29.5071 10.3489 0 
29.2327 9.79545 0 
29.3475 10.0485 0 
29.1136 9.59091 0 
29.4187 10.2339 0 
29.5148 10.4266 0 
29.4716 10.3489 0 
29.3918 10.1921 0 
29.3271 10.0695 0 
29.4298 10.2914 0 
29.2714 10 0 
29.3406 10.1502 0 
28.9208 9.25 0 
29.3066 10.0905 0 
29.4648 10.4266 0 
29.422 10.3489 0 
29.4958 10.5042 0 
29.2524 10.0196 0 
27.75 6 0 
29.3504 10.2339 0 
29.4837 10.5042 0 
29.4718 10.5042 0 
29.2774 10.1203 0 
29.4543 10.5042 0 
29.3724 10.3489 0 
29.2244 10.0485 0 
29.4369 10.5042 0 
29.3938 10.4266 0 
28.9853 9.59091 0 
29.2481 10.1502 0 
28.6766 8.90909 0 
29.4119 10.5042 0 
29.2934 10.2914 0 
27.225 4 0 
29.148 10 0 
29.2582 10.2339 0 
29.1837 10.0905 0 
29.3869 10.5042 0 
29.1385 10.0098 0 
29.3044 10.3489 0 
29.1291 10.0196 0 
29.2072 10.1921 0 
29.3514 10.5042 0 
29.1152 10.0341 0 
29.3929 10.6071 0 
29.2949 10.4266 0 
29.1013 10.0485 0 
29.3686 10.6071 0 
29.316 10.5042 0 
29.2364 10.3489 0 
28.9623 9.79545 0 
29.1257 10.1502 0 
29.1662 10.2339 0 
29.0811 10.0695 0 
28.8566 9.59091 0 
29.3336 10.6071 0 
29.2666 10.5042 0 
29.0609 10.0905 0 
28.9875 10 0 
29.2835 10.6071 0 
29.1448 10.3489 0 
29.0321 10.1203 0 
29.2173 10.5042 0 
29.1098 10.2914 0 
28.125 8 0 
28.9688 10.0196 0 
29.1594 10.4266 0 
28.611 9.25 0 
29.29 10.71 0 
28.4486 8.90909 0 
29.0443 10.2339 0 
29.0033 10.1502 0 
29.2777 10.71 0 
28.9413 10.0485 0 
29.2128 10.6071 0 
29.2655 10.71 0 
29.1497 10.5042 0 
29.2478 10.71 0 
28.7003 9.59091 0 
29.0533 10.3489 0 
29.2303 10.71 0 
28.9629 10.1921 0 
28.9013 10.0905 0 
29.2051 10.71 0 
29.0822 10.5042 0 
29.1801 10.71 0 
28.827 10 0 
29.1144 10.6071 0 
28.8177 10.0098 0 
28.9225 10.2339 0 
28.8085 10.0196 0 
29.1447 10.71 0 
28.7949 10.0341 0 
28.8443 10.1502 0 
28.977 10.4266 0 
28.9322 10.3489 0 
29.1094 10.71 0 
28.7813 10.0485 0 
28.9912 10.5042 0 
29.1562 10.8438 0 
28.5436 9.59091 0 
28.7615 10.0695 0 
28.8669 10.2914 0 
29.1313 10.8438 0 
28.6184 9.79545 0 
29.0602 10.71 0 
28.2207 8.90909 0 
28.7418 10.0905 0 
28.0378 8.45455 0 
28.9798 10.6071 0 
29.0958 10.8438 0 
29.0112 10.71 0 
28.9005 10.5042 0 
28.7136 10.1203 0 
28.7644 10.2339 0 
28.8113 10.3489 0 
29.0454 10.8438 0 
28.6223 10 0 
28.6854 10.1502 0 
28.2746 9.25 0 
28.9441 10.71 0 
28.6042 10.0196 0 
27.75 8 0 
28.9747 10.8438 0 
28.6459 10.1921 0 
28.5773 10.0485 0 
29.0225 10.9775 0 
28.3532 9.59091 0 
28.7804 10.5042 0 
28.736 10.4266 0 
28.8772 10.71 0 
29.0097 10.9775 0 
28.9971 10.9775 0 
28.799 10.6071 0 
28.9791 10.9775 0 
28.5384 10.0905 0 
28.6064 10.2339 0 
28.6543 10.3489 0 
28.9611 10.9775 0 
28.8769 10.8438 0 
27.9867 8.90909 0 
26.25 0 0 
28.9358 10.9775 0 
28.7871 10.71 0 
28.9106 10.9775 0 
28.6607 10.5042 0 
28.4177 10 0 
26.55 4 0 
28.552 10.2914 0 
28.483 10.1502 0 
28.4087 10.0098 0 
28.8751 10.9775 0 
28.3998 10.0196 0 
28.3866 10.0341 0 
28.8399 10.9775 0 
28.6974 10.71 0 
28.3735 10.0485 0 
28.1625 9.59091 0 
28.7436 10.8438 0 
28.4976 10.3489 0 
28.3543 10.0695 0 
28.791 10.9775 0 
28.4052 10.2339 0 
28.3352 10.0905 0 
28.8519 11.1481 0 
28.1869 9.79545 0 
28.5607 10.6071 0 
28.5053 10.5042 0 
28.7423 10.9775 0 
28.8258 11.1481 0 
28.308 10.1203 0 
28.5787 10.71 0 
27.904 9.25 0 
28.7893 11.1481 0 
28.424 10.4266 0 
27.7528 8.90909 0 
28.2807 10.1502 0 
28.6758 10.9775 0 
27.375 8 0 
28.7383 11.1481 0 
28.1619 10 0 
28.5649 10.8438 0 
28.2425 10.1921 0 
28.6096 10.9775 0 
28.1444 10.0196 0 
28.298 10.3489 0 
28.4605 10.71 0 
26.7 6 0 
27.9315 9.59091 0 
28.3503 10.5042 0 
28.6676 11.1481 0 
28.1187 10.0485 0 
28.2042 10.2339 0 
28.5207 10.9775 0 
28.0813 10.0905 0 
28.6814 11.3186 0 
27.3818 8.45455 0 
28.6679 11.3186 0 
28.1516 10.2914 0 
28.5703 11.1481 0 
28.6544 11.3186 0 
28.6358 11.3186 0 
27.5109 8.90909 0 
28.3072 10.71 0 
28.6173 11.3186 0 
28.2524 10.6071 0 
28.4322 10.9775 0 
28.028 10.1502 0 
28.5915 11.3186 0 
28.0989 10.3489 0 
28.33 10.8438 0 
28.5658 11.3186 0 
28.153 10.5042 0 
27.9061 10 0 
27.8975 10.0098 0 
28.5303 11.3186 0 
28.4384 11.1481 0 
27.7002 9.59091 0 
27.889 10.0196 0 
27.8765 10.0341 0 
28.4949 11.3186 0 
28.3154 10.9775 0 
27.9532 10.2339 0 
27.8639 10.0485 0 
28.0276 10.4266 0 
28.1544 10.71 0 
27.8457 10.0695 0 
27.4909 9.25 0 
28.4463 11.3186 0 
27 8 0 
27.8275 10.0905 0 
28.3979 11.3186 0 
27.8015 10.1203 0 
27.6542 9.79545 0 
25.675 2 0 
28.1991 10.9775 0 
27.2691 8.90909 0 
27.9563 10.5042 0 
28.4682 11.5318 0 
28.2625 11.1481 0 
27.7755 10.1502 0 
28.3322 11.3186 0 
27.8502 10.3489 0 
28.4401 11.5318 0 
25.875 4 0 
27.7391 10.1921 0 
28.4019 11.5318 0 
28.0268 10.8438 0 
28.2668 11.3186 0 
27.9602 10.71 0 
28.3498 11.5318 0 
27.4223 9.59091 0 
27.7026 10.2339 0 
27.5927 10 0 
28.0486 10.9775 0 
27.8616 10.6071 0 
27.5762 10.0196 0 
28.1794 11.3186 0 
28.2786 11.5318 0 
27.5519 10.0485 0 
27.6524 10.2914 0 
28.0319 11.1481 0 
27.7108 10.5042 0 
27.5167 10.0905 0 
27.0169 8.90909 0 
28.0924 11.3186 0 
27.6021 10.3489 0 
27.8988 10.9775 0 
28.1818 11.5318 0 
27.7667 10.71 0 
26.625 8 0 
28.255 11.745 0 
27.4664 10.1502 0 
28.2402 11.745 0 
28.2256 11.745 0 
28.2059 11.745 0 
27.978 11.3186 0 
26.7234 8.45455 0 
27.0259 9.25 0 
27.5342 10.4266 0 
28.1863 11.745 0 
27.1442 9.59091 0 
28.0516 11.5318 0 
28.1598 11.745 0 
27.3959 10.2339 0 
28.1334 11.745 0 
27.2793 10 0 
27.2714 10.0098 0 
27.2635 10.0196 0 
27.7086 10.9775 0 
27.6431 10.8438 0 
28.0975 11.745 0 
27.8643 11.3186 0 
27.4661 10.5042 0 
27.2518 10.0341 0 
27.2401 10.0485 0 
28.0617 11.745 0 
26.7648 8.90909 0 
27.5255 10.71 0 
27.7353 11.1481 0 
27.2231 10.0695 0 
28.0133 11.745 0 
27.2061 10.0905 0 
27.8791 11.5318 0 
27.2986 10.3489 0 
27.1818 10.1203 0 
27.9651 11.745 0 
27.3758 10.6071 0 
27.0077 9.79545 0 
27.7174 11.3186 0 
27.1576 10.1502 0 
25 0 0 
27.5193 10.9775 0 
27.9003 11.745 0 
27.1236 10.1921 0 
26.25 8 0 
27.9939 12.0061 0 
25.65 6 0 
27.8359 11.745 0 
26.8136 9.59091 0 
27.0896 10.2339 0 
27.9626 12.0061 0 
27.2853 10.71 0 
25.2 4 0 
27.5713 11.3186 0 
27.9218 12.0061 0 
26.4998 8.90909 0 
27.167 10.5042 0 
27.6541 11.5318 0 
27.0427 10.2914 0 
27.7503 11.745 0 
26.9033 10 0 
27.8677 12.0061 0 
26.8882 10.0196 0 
26.8659 10.0485 0 
26.9958 10.3489 0 
27.2836 10.9775 0 
27.6652 11.745 0 
27.3609 11.1481 0 
27.7955 12.0061 0 
26.499 9.25 0 
[...]
POINT_DATA 1909
SCALARS phi float 1
LOOKUP_TABLE default
VECTORS Displacement float
0 0 0
0 0 0
0 -0.00600613 0
0 0 0
0 -0.0083017 0
0 0 0
0 -0.00719222 0
0 0 0
0 0 0
0 -0.00302305 0
0.017041 -0.00520335 0
0 0 0
0 0.00394631 0
0.0330439 -0.00309523 0
0 0 0
0.0231335 -0.00509413 0
0 0.0128781 0
0 0 0
0.0438444 0.00732541 0
0.0298326 -0.00516689 0
0 0 0
0.049598 0.0238936 0
0 0 0
0.0369991 -0.00554793 0
0 0 0
0.0701022 -0.00340915 0
0.0442374 -0.00624238 0
0.0825721 0.000860184 0
0 0 0
0.0752098 -0.00376492 0
0.0914928 0.00660094 0
0.0972422 0.0134582 0
0.0802314 -0.00421091 0
0.100704 0.0206859 0
0 0 0
0.0852286 -0.00492521 0
0.103442 0.0282905 0
0.0510868 -0.00720684 0
0.0900882 -0.00574467 0
0.106034 0.037325 0
0 0 0
0.0947173 -0.00673637 0
0.121006 0.0035145 0
0.0991163 -0.0078292 0
0.132539 0.0158525 0
0.0571155 -0.00838569 0
0 0 0
0.131225 -0.000493414 0
0.137516 0.0326886 0
0.103193 -0.00904692 0
0.138549 0.0567949 0
0.106945 -0.0103552 0
0 0 0
0.139867 -0.00468721 0
0.11033 -0.0117549 0
0.0619652 -0.00973331 0
0.147168 -0.0092504 0
0.113322 -0.0132388 0
0 0 0
0.172242 0.00176527 0
0.177233 0.00569027 0
0.115927 -0.0147867 0
0.175836 -0.00133173 0
0.182127 0.0106797 0
0.153093 -0.0141618 0
0.18583 0.017766 0
0.184739 0.00759454 0
0.189667 0.0278556 0
0.190469 0.0254859 0
0.179006 -0.0045097 0
0.189296 0.0123575 0
0.190603 0.0348109 0
0.191245 0.0235029 0
0.187089 0.00484235 0
0.191377 0.0324185 0
0.183894 -0.000867298 0
0.192007 0.0215049 0
0.19091 0.0427236 0
0.192401 0.0296379 0
0.191264 0.0428649 0
0.31781 0.0885584 0
0.192714 0.0197385 0
0.191667 0.0428257 0
0.419932 0.124164 0
0.315559 0.0873119 0
0.192293 0.0427163 0
0.417699 0.122891 0
0.424824 0.12374 0
0.41511 0.121356 0
0.192974 0.0424625 0
0.410664 0.119194 0
0.424995 0.12248 0
0.311441 0.0848326 0
0.42277 0.121178 0
0.193786 0.0266182 0
0.193433 0.0179488 0
0.19398 0.0417622 0
0.424785 0.121354 0
0.406044 0.116824 0
0.424615 0.120333 0
0.42534 0.121033 0
0.195022 0.041011 0
0.418005 0.11771 0
0.118093 -0.0164227 0
0.399318 0.113302 0
0.424096 0.119068 0
0.305484 0.0804141 0
0.425086 0.119181 0
0.423411 0.117707 0
0.424588 0.119498 0
0.392671 0.109735 0
0.0653476 -0.0112215 0
0.196443 0.0394873 0
0.424525 0.118612 0
0.194091 0.0163035 0
0.189378 0.00228633 0
0 0 0
0.421893 0.115634 0
0.424441 0.117716 0
0.409731 0.112239 0
0.192393 0.00818743 0
0.424561 0.116467 0
0.195602 0.0233949 0
0.383687 0.104457 0
0.424289 0.116331 0
0.197835 0.0380266 0
0.423597 0.117432 0
0.419759 0.113334 0
0.424121 0.114895 0
0.297518 0.073486 0
0.423451 0.115538 0
0.374844 0.0993114 0
0.422923 0.112084 0
0.41606 0.109706 0
0.423804 0.112734 0
0.194792 0.0145747 0
0.422364 0.115184 0
0.199602 0.0357038 0
0.396909 0.103555 0
0.422281 0.114198 0
0.4232 0.112596 0
0.423435 0.110522 0
0.422197 0.113191 0
0.411584 0.105915 0
0.182031 -0.00770427 0
0.363069 0.092114 0
0.422061 0.111685 0
0.422604 0.107362 0
0.201225 0.0335326 0
0.421918 0.110162 0
0.418451 0.10531 0
0.420604 0.111891 0
0.422764 0.108186 0
0.286836 0.0638771 0
0.197836 0.0199392 0
0.195441 0.0129352 0
0.404623 0.10037 0
0.421699 0.107934 0
0.351563 0.0852498 0
0.420443 0.109813 0
0.421421 0.104161 0
0.377958 0.0911253 0
0.421474 0.105712 0
0.420187 0.106729 0
0.203165 0.0306537 0
0.418813 0.108478 0
0.396894 0.0948008 0
0.421784 0.101892 0
0.41872 0.107415 0
0.419023 0.0996944 0
0.421141 0.102565 0
0.418626 0.106356 0
0.19149 -0.000218207 0
0.336417 0.0762325 0
0.408833 0.0954723 0
0.19619 0.0111744 0
0.418487 0.104804 0
0.41979 0.102301 0
0.420808 0.0994878 0
0.418347 0.103266 0
0.415782 0.0951885 0
0.204815 0.0279556 0
0.385537 0.0871843 0
0.27256 0.0518262 0
0.418146 0.10106 0
0.416433 0.103743 0
0.195212 0.00427645 0
0.321846 0.067755 0
0.420183 0.095299 0
0.417946 0.0988896 0
0.200406 0.016198 0
0.418882 0.0933462 0
0.416254 0.101636 0
0.419212 0.0962076 0
0.351119 0.0748494 0
0.196916 0.00948388 0
0.410048 0.0890967 0
0.373461 0.0796663 0
0.417658 0.0958643 0
0.415987 0.098597 0
0.419381 0.0912501 0
0.206694 0.0248016 0
0.39112 0.0819857 0
0.414125 0.099069 0
0.41737 0.0929203 0
0.414031 0.0980248 0
0.303329 0.0573535 0
0.415596 0.0943318 0
0.413938 0.0969926 0
0.403098 0.0829696 0
0.413801 0.0954956 0
0.41833 0.0881899 0
0.41756 0.0859258 0
0.416974 0.0889247 0
0.413664 0.0940222 0
0.356354 0.0699906 0
0.197797 0.00761636 0
0.411039 0.082139 0
0.208185 0.0218152 0
0.193514 -0.00271291 0
0.413468 0.0919269 0
0.415045 0.0885424 0
0.254618 0.0380123 0
0.189302 -0.00725793 0
0.416594 0.0850995 0
0.413273 0.089878 0
0.28646 0.0479122 0
0.411204 0.0929395 0
0.414941 0.0807069 0
0.391889 0.0749816 0
0.184683 -0.0110053 0
0.315274 0.0552503 0
0.411027 0.0909327 0
0.413 0.0870336 0
0.203158 0.0120239 0
0.338721 0.0605434 0
0.198701 0.00582983 0
0.416007 0.0800533 0
0.410767 0.0880757 0
0.412733 0.0842758 0
0.416072 0.0780386 0
0.361617 0.0644705 0
0.414303 0.0809909 0
0.209818 0.0184944 0
0.409737 0.0740107 0
0.197854 0.000355033 0
0.379037 0.0669041 0
0.410392 0.0841045 0
0.412362 0.0805517 0
0.408341 0.0870271 0
0.267026 0.037263 0
0.157569 -0.0193507 0
0.415327 0.0752771 0
0.408257 0.0860519 0
0.408174 0.0850908 0
0.3936 0.0676011 0
0.408053 0.0837065 0
0.411998 0.0769705 0
0.31539 0.049144 0
0.407932 0.0823471 0
0.409862 0.0787458 0
0.199795 0.00378479 0
0.402966 0.0673151 0
0.195391 -0.00521429 0
0.407757 0.0804232 0
0.413341 0.0715014 0
0.119858 -0.0180925 0
0.211069 0.0153272 0
0.413727 0.0691758 0
0.359627 0.0568362 0
0.407583 0.0785436 0
0.235898 0.0238414 0
0.411513 0.0722518 0
0.251731 0.0284826 0
0.40893 0.0655121 0
0.407335 0.0759383 0
0.273815 0.0342561 0
0.404817 0.0795802 0
0.409138 0.0717394 0
0.2933 0.0386535 0
0.404658 0.0777317 0
0.407088 0.0734084 0
0.411048 0.0677654 0
0.205885 0.00712906 0
0.391072 0.058952 0
0.411303 0.0633116 0
0.317713 0.0433603 0
0.200917 0.001812 0
0.404426 0.0751237 0
0.406741 0.0699824 0
0.338437 0.0467359 0
0.212384 0.0117171 0
0.404093 0.0715128 0
0.410413 0.0619921 0
0.359996 0.0491254 0
0.406397 0.066681 0
0.411251 0.0599451 0
0.187099 -0.0142929 0
0.237053 0.0194044 0
0.408189 0.0628955 0
0.200326 -0.0037579 0
0.401355 0.0724873 0
0.197115 -0.00779667 0
0.406077 0.0560626 0
0.376455 0.0503717 0
0.401285 0.0715956 0
0.268437 0.0269765 0
0.40362 0.066636 0
0.401214 0.0707168 0
0.405926 0.0623304 0
0.401113 0.0694618 0
0.202257 -0.000497927 0
0.409723 0.0565984 0
0.401011 0.0682284 0
0.390295 0.050032 0
0.310417 0.0349648 0
0.400862 0.0664915 0
0.405464 0.0581796 0
0.400714 0.0647917 0
0.213418 0.00827984 0
0.402963 0.0602484 0
0.222059 0.0111123 0
0.398888 0.0489456 0
0.228012 0.0127404 0
0.400501 0.0624412 0
0.238717 0.015501 0
0.353487 0.0402677 0
0.407052 0.0521843 0
0.408123 0.0499226 0
0.400287 0.0601562 0
0.249684 0.0179744 0
0.404868 0.0528747 0
0.397097 0.0637838 0
0.203582 -0.00275431 0
0.267371 0.0216462 0
0.404033 0.046444 0
0.396965 0.0620929 0
0.208403 0.00120536 0
0.399985 0.0570679 0
0.198706 -0.0103728 0
0.284458 0.0245972 0
0.193606 -0.0137781 0
0.402083 0.0521877 0
0.396774 0.0597365 0
0.399683 0.0540941 0
0.404315 0.0478986 0
0.307386 0.0278729 0
0.385284 0.0405945 0
0.405652 0.0436944 0
0.396501 0.0564995 0
0.214424 0.00419197 0
0.32775 0.0301128 0
0.20265 -0.00815712 0
0.399271 0.0501833 0
0.221407 0.00608126 0
0.189133 -0.0176417 0
0.396117 0.052156 0
0.350093 0.031485 0
0.233705 0.00871781 0
0.39301 0.0555662 0
0.205118 -0.00543275 0
0.403629 0.0417416 0
0.404916 0.039841 0
0.398868 0.0464676 0
0.39295 0.0547515 0
0.392889 0.0539498 0
0.400989 0.042478 0
0.392804 0.0528228 0
0.25782 0.0131439 0
0.367548 0.0319476 0
0.400006 0.0363734 0
0.392718 0.0517172 0
0.39559 0.0465077 0
0.200152 -0.0130302 0
0 0 0
0.392595 0.0501784 0
0.398345 0.0417412 0
0.392473 0.0486767 0
0.402919 0.0361302 0
0.215258 0.000303641 0
0.121158 -0.0198695 0
0.382535 0.030908 0
0.295752 0.0186271 0
0.216817 0.000677318 0
0.392301 0.0466187 0
0.218496 0.00104961 0
0.221327 0.0016474 0
0.39213 0.0446261 0
0.397858 0.0373248 0
0.224975 0.00241668 0
0.206567 -0.00807616 0
0.394899 0.0394506 0
0.39185 0.0293608 0
0.231883 0.00382561 0
0.391898 0.0419539 0
0.340061 0.0224502 0
0.24007 0.00533687 0
0.388072 0.0458044 0
0.210685 -0.00590035 0
0.399844 0.0314189 0
0.401298 0.0294932 0
0.391672 0.0393946 0
0.387973 0.0442818 0
0.253958 0.00765768 0
0.397291 0.0319178 0
0.204869 -0.0128848 0
0.387833 0.0422142 0
0.39725 0.0264919 0
0.20145 -0.0156842 0
0.268674 0.00961627 0
0.391375 0.0360541 0
0.190893 -0.0209791 0
0.387639 0.0394296 0
0.215932 -0.00437655 0
0.394063 0.0310415 0
0.28998 0.0118711 0
0.391094 0.0328975 0
0.217381 -0.0042309 0
0.375551 0.0217601 0
0.396827 0.0269566 0
0.160542 -0.0247605 0
0.208175 -0.0112285 0
0.398793 0.023506 0
0.387374 0.0357535 0
0.22039 -0.00390127 0
0.31014 0.0132401 0
0.390742 0.0288993 0
0.227826 -0.00294894 0
0.383226 0.0367808 0
0.196852 -0.0203664 0
0.383185 0.0360659 0
0.333892 0.013818 0
0.387023 0.0310393 0
0.383144 0.0353651 0
0.38309 0.0344028 0
0.202599 -0.0184313 0
0.396248 0.021045 0
0.383037 0.0334625 0
0.397801 0.0195033 0
0.390425 0.025171 0
0.244943 -0.000888238 0
0.382964 0.0321771 0
0.353378 0.0135895 0
0.393172 0.0214833 0
0.382893 0.0309277 0
0.392517 0.0166666 0
0.216521 -0.0088324 0
0.216885 -0.00886495 0
0.382798 0.029239 0
0.386586 0.0252003 0
0.209617 -0.0143556 0
0.217244 -0.00890286 0
0.217882 -0.00892789 0
0.382705 0.0276088 0
0.390043 0.0205769 0
0.277075 0.00219314 0
0.218594 -0.00894153 0
0.371038 0.0118909 0
0.395578 0.0156524 0
0.220088 -0.00884584 0
0.206961 -0.0180181 0
0.382584 0.0254424 0
0.192284 -0.0243347 0
0.222025 -0.00866405 0
0.38247 0.0233674 0
0.225959 -0.00819116 0
0.212944 -0.0141135 0
0.0670178 -0.0128285 0
0.389711 0.0162955 0
0.203593 -0.0211657 0
0.382476 0.00989328 0
0.377862 0.0267071 0
0.38608 0.0182134 0
0.231235 -0.00752371 0
0.382324 0.0206652 0
0.321579 0.00447498 0
0.377804 0.025396 0
0.122039 -0.0216413 0
0.240895 -0.0063875 0
0.377724 0.0236741 0
0.392255 0.0107939 0
0.38219 0.0180941 0
0.393956 0.0091692 0
0.377616 0.0214082 0
0.211093 -0.0180793 0
0.252462 -0.00530775 0
0.217037 -0.0140238 0
0.389358 0.01107 0
0.389199 0.00653573 0
0.217566 -0.0141689 0
0.382018 0.0148107 0
0.377476 0.018453 0
0.218406 -0.014382 0
0.270711 -0.00404987 0
0.385515 0.0100015 0
0.362365 0.00274472 0
0.220025 -0.0146349 0
0.204469 -0.0239952 0
0.381857 0.0116814 0
0.289545 -0.00355293 0
0.388958 0.00608604 0
0.377298 0.0146608 0
0.391225 0.00312506 0
0.193396 -0.0277046 0
0.372342 0.0175326 0
0.224037 -0.0147811 0
0.372329 0.0169261 0
0.372316 0.0163305 0
0.372301 0.0155385 0
0.381655 0.00772756 0
0.19905 -0.0269944 0
0.208788 -0.0236952 0
0.313675 -0.00390405 0
0.372287 0.0147622 0
0.212327 -0.0217756 0
0.37708 0.00988134 0
0.372269 0.0137222 0
0.234658 -0.0145653 0
0.372252 0.0127051 0
0.217523 -0.0190089 0
0.217716 -0.0190998 0
0.217922 -0.0191879 0
0.388301 -1.38172e-05 0
0.39006 -0.001382 0
0.372227 0.0113443 0
0.381435 0.00390324 0
0.334898 -0.00514542 0
0.218216 -0.0193232 0
0.218514 -0.0194585 0
0.372204 0.0100168 0
0.20518 -0.026812 0
0.383446 -0.00379539 0
0.384799 0.000205256 0
0.218986 -0.0196429 0
0.372168 0.00825509 0
0.219443 -0.0198367 0
0.376815 0.00391748 0
0.258761 -0.0139879 0
0.220244 -0.0200709 0
0.372133 0.00653762 0
0.355644 -0.00797507 0
0.215275 -0.0233702 0
0.381135 -0.000908056 0
0.221154 -0.0202942 0
0 0 0
0.387485 -0.00583498 0
0.372083 0.00428075 0
0.223139 -0.0204605 0
0.194167 -0.0310736 0
0.36632 0.00754447 0
0.161992 -0.0303484 0
0.372028 0.00207344 0
0.213426 -0.0261314 0
0.225856 -0.0205353 0
0.366301 0.00637528 0
0.369948 -0.0109263 0
0.122438 -0.0235525 0
0.380792 -0.00558493 0
0.366275 0.00488032 0
0.205772 -0.0297525 0
0.29945 -0.0141022 0
0.376444 -0.00352605 0
0.231472 -0.0204434 0
0.371946 -0.000801315 0
0.21834 -0.0245952 0
0.366238 0.00294115 0
0.218585 -0.0248115 0
0.219014 -0.0251143 0
0.239169 -0.0202641 0
0.385402 -0.0129114 0
0.371851 -0.0036257 0
0.383626 -0.0114512 0
0.366188 0.000412978 0
0.210158 -0.0300453 0
0.219694 -0.0255487 0
0.378878 -0.0153216 0
0.380285 -0.0113579 0
0.252546 -0.0201508 0
0.366123 -0.00288294 0
0.371699 -0.00726492 0
0.22075 -0.0261803 0
0.34432 -0.0176711 0
0.206188 -0.0326836 0
0.200281 -0.0336186 0
0.214196 -0.0304466 0
0.375838 -0.0127143 0
0.26818 -0.0205925 0
0.194671 -0.0344494 0
0.360152 -0.00190102 0
0.222771 -0.02706 0
0.371523 -0.0108339 0
0.360154 -0.0024841 0
0.366023 -0.00716514 0
0.381903 -0.0195173 0
0.360155 -0.00306038 0
0.379709 -0.0169471 0
0.360157 -0.00379612 0
0.360158 -0.00452361 0
0.36016 -0.00547056 0
0.218906 -0.0300507 0
0.290277 -0.0220492 0
0.219046 -0.0301594 0
0.219184 -0.0302689 0
0.36016 -0.00640731 0
0.219374 -0.0304333 0
0.228204 -0.028209 0
0.371263 -0.0153534 0
0.219563 -0.0305988 0
0.360158 -0.0076414 0
0.219827 -0.0308419 0
0.365852 -0.0126803 0
0.360152 -0.0088628 0
0.220091 -0.0310873 0
0.220458 -0.0314403 0
0.206459 -0.0357725 0
0.311593 -0.0246232 0
0.360138 -0.0104756 0
0.380688 -0.0248578 0
0.378783 -0.0237009 0
0.220824 -0.0317969 0
0.37096 -0.019762 0
0.360119 -0.0120717 0
0.37113 -0.0263949 0
0.21689 -0.033878 0
0.221349 -0.0322933 0
0.374802 -0.02376 0
0.243145 -0.0298633 0
0.360084 -0.0141707 0
0.214728 -0.0354356 0
0.221862 -0.0328 0
0.194869 -0.0378172 0
0.365552 -0.0196635 0
0.122402 -0.0254008 0
0.360041 -0.0162452 0
0.334612 -0.0290285 0
0.210841 -0.0371692 0
0.222766 -0.0334461 0
0.370515 -0.0252162 0
0.353017 -0.0126748 0
0.37765 -0.0301633 0
0.359973 -0.0189487 0
0.353021 -0.0138888 0
0.223867 -0.0340751 0
0.206547 -0.0388509 0
0.353022 -0.0153907 0
0.219408 -0.0362323 0
0.219616 -0.0364534 0
0.359892 -0.0216113 0
0.351997 -0.0335238 0
0.275034 -0.0328824 0
0.353019 -0.0172943 0
0.219929 -0.0367821 0
0.226494 -0.03475 0
0.370001 -0.0305161 0
0.220385 -0.0372645 0
0.200594 -0.0402487 0
0.365027 -0.0282966 0
0.353005 -0.019743 0
0.359765 -0.0250298 0
0.230267 -0.0353895 0
0.221037 -0.0379617 0
0.161922 -0.0360868 0
0.374671 -0.0377935 0
0.214843 -0.0403745 0
0.352972 -0.0229094 0
0.373126 -0.0367038 0
0.194816 -0.0411912 0
0.359616 -0.0283837 0
0.364332 -0.0394958 0
0.22192 -0.0389682 0
0.238019 -0.0362605 0
0.206455 -0.0421167 0
0.369268 -0.0369165 0
0.352901 -0.0269903 0
0 0 0
0.359389 -0.0326112 0
0.319859 -0.0390691 0
0.345834 -0.0232425 0
0.223199 -0.0403939 0
0.248611 -0.0374786 0
0.345838 -0.0238887 0
0.345841 -0.0245303 0
0.0667635 -0.0145084 0
0.219309 -0.042389 0
0.345844 -0.0253136 0
0.364138 -0.0387033 0
0.219421 -0.0425077 0
0.219534 -0.0426267 0
0.345846 -0.0260912 0
0.369474 -0.0447403 0
0.21969 -0.0428034 0
0.35276 -0.0321948 0
0.359124 -0.0367429 0
0.345847 -0.0270652 0
0.219845 -0.0429808 0
0.368446 -0.0430957 0
0.220063 -0.0432403 0
0.345845 -0.0280317 0
0.220277 -0.0435017 0
0.265564 -0.0398816 0
0.345841 -0.029264 0
0.225724 -0.0424264 0
0.220574 -0.0438794 0
0.21059 -0.0451266 0
0.121861 -0.0274263 0
0.345835 -0.0304857 0
0.206175 -0.0453674 0
0.220866 -0.0442611 0
0.194489 -0.0445559 0
0.345822 -0.0320582 0
0.221261 -0.0448041 0
0.358735 -0.0418482 0
0.214541 -0.0459963 0
0.216832 -0.0457802 0
0.345804 -0.0336147 0
0.221647 -0.0453542 0
0.352499 -0.0387302 0
0.284349 -0.043626 0
0.345774 -0.0356218 0
0.368892 -0.0510792 0
0.22216 -0.0461187 0
0.367172 -0.0503779 0
0.200016 -0.0468999 0
0.232665 -0.0456511 0
0.353529 -0.0504929 0
0.345736 -0.0376044 0
0.222648 -0.0468955 0
0.358288 -0.0468134 0
0.362658 -0.050879 0
0.345676 -0.0401481 0
0.223309 -0.0479338 0
0.307072 -0.0496928 0
0.205675 -0.0488298 0
0.337386 -0.0354592 0
0.352037 -0.0467791 0
0.218677 -0.0492671 0
0.345603 -0.0426553 0
0.337392 -0.0368466 0
0.218842 -0.0495011 0
0.223952 -0.0489869 0
0.21909 -0.0498492 0
0.193922 -0.0479202 0
0.337394 -0.0384862 0
0.357646 -0.0528064 0
0.365641 -0.0572949 0
0.219448 -0.0503594 0
0.34549 -0.045839 0
0.337391 -0.0404773 0
0.224902 -0.0504032 0
0.252142 -0.0512884 0
0.219948 -0.0510966 0
0.213752 -0.0515426 0
0.326522 -0.0563649 0
0.337376 -0.0429444 0
0.345355 -0.0489682 0
0.220629 -0.0521464 0
0.226021 -0.0518577 0
0.356912 -0.0586167 0
0.337341 -0.0460382 0
0.204979 -0.0522701 0
0.351249 -0.0564628 0
0.345153 -0.0528853 0
0.221543 -0.0536223 0
0.120879 -0.029302 0
0.160347 -0.0419296 0
0.360808 -0.0649628 0
0.229209 -0.0536408 0
0.209111 -0.0539389 0
0.337269 -0.0499327 0
0.360332 -0.0647439 0
0.342917 -0.0647474 0
0.193106 -0.0512664 0
0.344917 -0.0567221 0
0.222732 -0.0556869 0
0.355876 -0.0654639 0
0.217441 -0.0560134 0
0.328794 -0.0475002 0
0.217527 -0.0561351 0
0.217611 -0.0562571 0
0.234126 -0.0555887 0
0.198586 -0.0535631 0
0.328798 -0.0482478 0
0.289517 -0.0607027 0
0.217732 -0.0564373 0
0.337133 -0.0548186 0
0.217852 -0.0566182 0
0.328801 -0.0489914 0
0.218021 -0.0568813 0
0.328803 -0.0498562 0
0.218189 -0.0571458 0
0.344572 -0.0614409 0
0.328804 -0.050716 0
0.218424 -0.0575254 0
0.328803 -0.0517439 0
0.218657 -0.0579078 0
0.204005 -0.0559393 0
0.3288 -0.0527652 0
0.212371 -0.0577087 0
0.351648 -0.071747 0
0.218977 -0.0584495 0
0.349965 -0.0678347 0
0.328794 -0.0540144 0
0.22416 -0.0585811 0
0.219292 -0.0589971 0
0.244133 -0.0585481 0
0.336887 -0.0608888 0
0.328785 -0.0552546 0
0.344172 -0.0660459 0
0.354718 -0.0720808 0
0.214436 -0.0588998 0
0 0 0
0.219708 -0.0597651 0
0.32877 -0.0567958 0
0.192063 -0.0546009 0
0.220116 -0.0605458 0
0.328749 -0.0583244 0
0.328716 -0.0602405 0
0.220641 -0.0616285 0
0.257425 -0.0627259 0
0.343608 -0.0716014 0
0.328676 -0.0621381 0
0.336462 -0.068318 0
0.22113 -0.0627408 0
0.226823 -0.0627618 0
0.353431 -0.0795991 0
0.202834 -0.0595761 0
0.328614 -0.0645208 0
0.352997 -0.0797293 0
0.328397 -0.0751185 0
0.119364 -0.0313769 0
0.221728 -0.0642627 0
0.21544 -0.0634061 0
0.32854 -0.0668757 0
0.21558 -0.0636494 0
0.342966 -0.0769989 0
0.215786 -0.064011 0
0.31878 -0.0611596 0
0.27607 -0.0695021 0
0.347953 -0.0808403 0
0.21608 -0.0645402 0
0.222217 -0.0658262 0
0.328429 -0.0698192 0
0.318785 -0.0627826 0
0.210468 -0.0637561 0
0.190799 -0.0579027 0
0.216487 -0.0653041 0
0.318785 -0.0646164 0
0.196337 -0.0602165 0
0.335753 -0.0772406 0
0.206107 -0.0635465 0
0.328298 -0.0727212 0
0.217028 -0.0663927 0
0.222801 -0.0678557 0
0.318775 -0.0667445 0
0.350863 -0.0867906 0
0.235338 -0.0697311 0
0.342087 -0.0833657 0
0.318753 -0.0692724 0
0.217716 -0.0679251 0
0.201326 -0.0634441 0
0.294884 -0.0779381 0
0.328106 -0.0763138 0
0.223324 -0.0699053 0
0.1573 -0.0477733 0
0.318707 -0.0723293 0
0.327884 -0.0798453 0
0.21853 -0.0700557 0
0.0644653 -0.0161555 0
0.341101 -0.0895243 0
0.318624 -0.0760659 0
0.18932 -0.0611776 0
0.224106 -0.072605 0
0.33461 -0.0877151 0
0.327566 -0.0841574 0
0.342462 -0.0933615 0
0.212809 -0.0705808 0
0.212875 -0.070705 0
0.212941 -0.0708296 0
0.213036 -0.0710134 0
0.313258 -0.0889393 0
0.21313 -0.0711978 0
0.219459 -0.0729684 0
0.344833 -0.0951118 0
0.213265 -0.071466 0
0.318477 -0.0806496 0
0.213397 -0.0717353 0
0.213584 -0.0721208 0
0.207829 -0.0703071 0
0.199623 -0.0672587 0
0.308507 -0.0746873 0
0.225251 -0.0753843 0
0.213766 -0.0725087 0
0.117434 -0.0331918 0
0.327202 -0.0883811 0
0.30851 -0.0755688 0
0.258963 -0.0817279 0
0.214017 -0.0730553 0
0.308511 -0.0764472 0
0.339704 -0.0965747 0
0.214259 -0.0736065 0
0.308512 -0.0774241 0
0.30851 -0.0783973 0
0.214582 -0.0743711 0
0.318228 -0.086254 0
0.308505 -0.0795073 0
0.209289 -0.0728806 0
0.21489 -0.0751437 0
0.308498 -0.0806127 0
0.220518 -0.0768837 0
0.326692 -0.0934504 0
0.193292 -0.0668257 0
0.308487 -0.081904 0
0.187649 -0.0644009 0
0.325754 -0.098712 0
0.229141 -0.0790337 0
0.215287 -0.0761998 0
0.308472 -0.083189 0
0.332824 -0.0996985 0
0.215663 -0.077267 0
0.308449 -0.0847206 0
0.338153 -0.103444 0
0 0 0
0.308421 -0.0862434 0
0.317816 -0.0930434 0
0.326112 -0.098396 0
0.216112 -0.0787105 0
0.30838 -0.0880853 0
0.19753 -0.0712872 0
0.235433 -0.0834171 0
0.308331 -0.0899142 0
0.216539 -0.0801751 0
0.201346 -0.0737712 0
0.221539 -0.0821445 0
0.308259 -0.0921447 0
0.209285 -0.0782128 0
0.209406 -0.0784607 0
0.209581 -0.0788282 0
0.204674 -0.0766578 0
0.32532 -0.104218 0
0.217033 -0.0821331 0
0.332026 -0.10921 0
0.209829 -0.0793646 0
0.308177 -0.0943561 0
0.295266 -0.0994211 0
0.185773 -0.067575 0
0.31715 -0.10115 0
0.21017 -0.0801361 0