# vtk DataFile Version 3.0
File generated from DClib
ASCII

DATASET UNSTRUCTURED_GRID
POINTS 1909 float
50 0 0 
48.75 0 0 
50 1.66667 0 
47.5 0 0 
50 3.33333 0 
46.25 0 0 
50 5 0 
45 0 0 
43.75 0 0 
50 6.66667 0 
43 2 0 
42.5 0 0 
50 8.33333 0 
43 4.66667 0 
41.25 0 0 
41.075 2 0 
50 10 0 
40 0 0 
43 7.33333 0 
39.15 2 0 
38.75 0 0 
43 10 0 
37.5 0 0 
37.225 2 0 
36.25 0 0 
36 4 0 
35.3 2 0 
36 5 0 
35 0 0 
35.325 4 0 
36 6 0 
36 7 0 
34.65 4 0 
36 8 0 
33.75 0 0 
33.975 4 0 
36 9 0 
33.375 2 0 
33.3 4 0 
36 10 0 
32.5 0 0 
32.625 4 0 
33 6 0 
31.95 4 0 
33 7.45455 0 
31.45 2 0 
31.25 0 0 
31.95 6 0 
33 8.79545 0 
31.275 4 0 
33 10 0 
30.6 4 0 
30 0 0 
30.9 6 0 
29.925 4 0 
29.525 2 0 
29.85 6 0 
29.25 4 0 
28.75 0 0 
30 8 0 
30 8.45455 0 
28.575 4 0 
29.625 8 0 
30 8.90909 0 
28.8 6 0 
30 9.25 0 
29.782 8.90909 0 
30 9.59091 0 
29.9487 9.59091 0 
29.25 8 0 
29.7462 9.25 0 
30 9.79545 0 
29.897 9.59091 0 
29.564 8.90909 0 
29.9547 9.79545 0 
29.3462 8.45455 0 
29.84 9.59091 0 
30 10 0 
29.8975 9.79545 0 
29.9882 10 0 
29.9902 10.0098 0 
29.7827 9.59091 0 
29.9765 10 0 
29.9804 10.0196 0 
29.9667 10.0098 0 
29.9591 10 0 
29.9686 10.0196 0 
29.9659 10.0341 0 
29.9569 10.0196 0 
29.9418 10 0 
29.9395 10.0196 0 
29.9515 10.0485 0 
29.932 10.0098 0 
29.9424 10.0341 0 
29.8241 9.79545 0 
29.7181 9.59091 0 
29.9166 10 0 
29.9397 10.0485 0 
29.9222 10.0196 0 
29.9279 10.0485 0 
29.9305 10.0695 0 
29.8914 10 0 
29.9077 10.0341 0 
27.9 4 0 
29.897 10.0196 0 
29.9106 10.0485 0 
29.8817 10.0098 0 
29.907 10.0695 0 
29.8933 10.0485 0 
29.9095 10.0905 0 
29.8719 10.0196 0 
27.6 2 0 
29.8556 10 0 
29.8978 10.0905 0 
29.6531 9.59091 0 
29.3437 8.90909 0 
27.5 0 0 
29.8681 10.0485 0 
29.886 10.0905 0 
29.8574 10.0341 0 
29.4839 9.25 0 
29.8723 10.0695 0 
29.7289 9.79545 0 
29.836 10.0196 0 
29.8687 10.0905 0 
29.8197 10 0 
29.8797 10.1203 0 
29.843 10.0485 0 
29.8513 10.0905 0 
29.81 10.0098 0 
29.8561 10.1203 0 
29.8002 10.0196 0 
29.8221 10.0695 0 
29.8072 10.0485 0 
29.8262 10.0905 0 
29.5782 9.59091 0 
29.8498 10.1502 0 
29.7695 10 0 
29.7858 10.0341 0 
29.838 10.1502 0 
29.8215 10.1203 0 
29.8011 10.0905 0 
29.8262 10.1502 0 
29.7714 10.0485 0 
28.875 8 0 
29.75 10.0196 0 
29.8089 10.1502 0 
29.7654 10.0905 0 
29.7193 10 0 
29.7916 10.1502 0 
29.7505 10.0695 0 
29.8079 10.1921 0 
29.7713 10.1203 0 
29.7096 10.0098 0 
29.6047 9.79545 0 
29.503 9.59091 0 
29.7213 10.0485 0 
29.7665 10.1502 0 
29.6999 10.0196 0 
29.7844 10.1921 0 
29.7296 10.0905 0 
29.6856 10.0341 0 
29.7414 10.1502 0 
29.7497 10.1921 0 
29.6503 10 0 
29.7661 10.2339 0 
29.6712 10.0485 0 
29.6999 10.1203 0 
29.7543 10.2339 0 
29.6796 10.0905 0 
29.7057 10.1502 0 
29.7425 10.2339 0 
29.1235 8.90909 0 
29.6309 10.0196 0 
29.6504 10.0695 0 
29.4146 9.59091 0 
29.7252 10.2339 0 
29.6996 10.1921 0 
29.6701 10.1502 0 
29.7079 10.2339 0 
29.6296 10.0905 0 
29.5813 10 0 
29.6023 10.0485 0 
29.5716 10.0098 0 
29.6828 10.2339 0 
29.7086 10.2914 0 
29.2101 9.25 0 
29.562 10.0196 0 
29.6201 10.1502 0 
29.6578 10.2339 0 
29.4428 9.79545 0 
29.5999 10.1203 0 
29.6849 10.2914 0 
29.6283 10.1921 0 
29.5477 10.0341 0 
29.3259 9.59091 0 
29.5608 10.0905 0 
29.5335 10.0485 0 
29.6221 10.2339 0 
29.6503 10.2914 0 
29.5702 10.1502 0 
29.4881 10 0 
29.5128 10.0695 0 
29.6511 10.3489 0 
29.5866 10.2339 0 
29.6392 10.3489 0 
29.4689 10.0196 0 
29.6002 10.2914 0 
29.6273 10.3489 0 
29.4921 10.0905 0 
29.61 10.3489 0 
29.5286 10.1921 0 
29.5016 10.1502 0 
29.5368 10.2339 0 
29.5926 10.3489 0 
29.4405 10.0485 0 
29.2199 9.59091 0 
29.4626 10.1203 0 
29.3949 10 0 
28.9 8.90909 0 
29.5676 10.3489 0 
29.5291 10.2914 0 
29.3853 10.0098 0 
28.6923 8.45455 0 
29.487 10.2339 0 
29.5426 10.3489 0 
29.3758 10.0196 0 
29.5734 10.4266 0 
29.4331 10.1502 0 
29.3993 10.0905 0 
28.5 8 0 
29.3617 10.0341 0 
29.5496 10.4266 0 
29.5071 10.3489 0 
29.2327 9.79545 0 
29.3475 10.0485 0 
29.1136 9.59091 0 
29.4187 10.2339 0 
29.5148 10.4266 0 
29.4716 10.3489 0 
29.3918 10.1921 0 
29.3271 10.0695 0 
29.4298 10.2914 0 
29.2714 10 0 
29.3406 10.1502 0 
28.9208 9.25 0 
29.3066 10.0905 0 
29.4648 10.4266 0 
29.422 10.3489 0 
29.4958 10.5042 0 
29.2524 10.0196 0 
27.75 6 0 
29.3504 10.2339 0 
29.4837 10.5042 0 
29.4718 10.5042 0 
29.2774 10.1203 0 
29.4543 10.5042 0 
29.3724 10.3489 0 
29.2244 10.0485 0 
29.4369 10.5042 0 
29.3938 10.4266 0 
28.9853 9.59091 0 
29.2481 10.1502 0 
28.6766 8.90909 0 
29.4119 10.5042 0 
29.2934 10.2914 0 
27.225 4 0 
29.148 10 0 
29.2582 10.2339 0 
29.1837 10.0905 0 
29.3869 10.5042 0 
29.1385 10.0098 0 
29.3044 10.3489 0 
29.1291 10.0196 0 
29.2072 10.1921 0 
29.3514 10.5042 0 
29.1152 10.0341 0 
29.3929 10.6071 0 
29.2949 10.4266 0 
29.1013 10.0485 0 
29.3686 10.6071 0 
29.316 10.5042 0 
29.2364 10.3489 0 
28.9623 9.79545 0 
29.1257 10.1502 0 
29.1662 10.2339 0 
29.0811 10.0695 0 
28.8566 9.59091 0 
29.3336 10.6071 0 
29.2666 10.5042 0 
29.0609 10.0905 0 
28.9875 10 0 
29.2835 10.6071 0 
29.1448 10.3489 0 
29.0321 10.1203 0 
29.2173 10.5042 0 
29.1098 10.2914 0 
28.125 8 0 
28.9688 10.0196 0 
29.1594 10.4266 0 
28.611 9.25 0 
29.29 10.71 0 
28.4486 8.90909 0 
29.0443 10.2339 0 
29.0033 10.1502 0 
29.2777 10.71 0 
28.9413 10.0485 0 
29.2128 10.6071 0 
29.2655 10.71 0 
29.1497 10.5042 0 
29.2478 10.71 0 
28.7003 9.59091 0 
29.0533 10.3489 0 
29.2303 10.71 0 
28.9629 10.1921 0 
28.9013 10.0905 0 
29.2051 10.71 0 
29.0822 10.5042 0 
29.1801 10.71 0 
28.827 10 0 
29.1144 10.6071 0 
28.8177 10.0098 0 
28.9225 10.2339 0 
28.8085 10.0196 0 
29.1447 10.71 0 
28.7949 10.0341 0 
28.8443 10.1502 0 
28.977 10.4266 0 
28.9322 10.3489 0 
29.1094 10.71 0 
28.7813 10.0485 0 
28.9912 10.5042 0 
29.1562 10.8438 0 
28.5436 9.59091 0 
28.7615 10.0695 0 
28.8669 10.2914 0 
29.1313 10.8438 0 
28.6184 9.79545 0 
29.0602 10.71 0 
28.2207 8.90909 0 
28.7418 10.0905 0 
28.0378 8.45455 0 
28.9798 10.6071 0 
29.0958 10.8438 0 
29.0112 10.71 0 
28.9005 10.5042 0 
28.7136 10.1203 0 
28.7644 10.2339 0 
28.8113 10.3489 0 
29.0454 10.8438 0 
28.6223 10 0 
28.6854 10.1502 0 
28.2746 9.25 0 
28.9441 10.71 0 
28.6042 10.0196 0 
27.75 8 0 
28.9747 10.8438 0 
28.6459 10.1921 0 
28.5773 10.0485 0 
29.0225 10.9775 0 
28.3532 9.59091 0 
28.7804 10.5042 0 
28.736 10.4266 0 
28.8772 10.71 0 
29.0097 10.9775 0 
28.9971 10.9775 0 
28.799 10.6071 0 
28.9791 10.9775 0 
28.5384 10.0905 0 
28.6064 10.2339 0 
28.6543 10.3489 0 
28.9611 10.9775 0 
28.8769 10.8438 0 
27.9867 8.90909 0 
26.25 0 0 
28.9358 10.9775 0 
28.7871 10.71 0 
28.9106 10.9775 0 
28.6607 10.5042 0 
28.4177 10 0 
26.55 4 0 
28.552 10.2914 0 
28.483 10.1502 0 
28.4087 10.0098 0 
28.8751 10.9775 0 
28.3998 10.0196 0 
28.3866 10.0341 0 
28.8399 10.9775 0 
28.6974 10.71 0 
28.3735 10.0485 0 
28.1625 9.59091 0 
28.7436 10.8438 0 
28.4976 10.3489 0 
28.3543 10.0695 0 
28.791 10.9775 0 
28.4052 10.2339 0 
28.3352 10.0905 0 
28.8519 11.1481 0 
28.1869 9.79545 0 
28.5607 10.6071 0 
28.5053 10.5042 0 
28.7423 10.9775 0 
28.8258 11.1481 0 
28.308 10.1203 0 
28.5787 10.71 0 
27.904 9.25 0 
28.7893 11.1481 0 
28.424 10.4266 0 
27.7528 8.90909 0 
28.2807 10.1502 0 
28.6758 10.9775 0 
27.375 8 0 
28.7383 11.1481 0 
28.1619 10 0 
28.5649 10.8438 0 
28.2425 10.1921 0 
28.6096 10.9775 0 
28.1444 10.0196 0 
28.298 10.3489 0 
28.4605 10.71 0 
26.7 6 0 
27.9315 9.59091 0 
28.3503 10.5042 0 
28.6676 11.1481 0 
28.1187 10.0485 0 
28.2042 10.2339 0 
28.5207 10.9775 0 
28.0813 10.0905 0 
28.6814 11.3186 0 
27.3818 8.45455 0 
28.6679 11.3186 0 
28.1516 10.2914 0 
28.5703 11.1481 0 
28.6544 11.3186 0 
28.6358 11.3186 0 
27.5109 8.90909 0 
28.3072 10.71 0 
28.6173 11.3186 0 
28.2524 10.6071 0 
28.4322 10.9775 0 
28.028 10.1502 0 
28.5915 11.3186 0 
28.0989 10.3489 0 
28.33 10.8438 0 
28.5658 11.3186 0 
28.153 10.5042 0 
27.9061 10 0 
27.8975 10.0098 0 
28.5303 11.3186 0 
28.4384 11.1481 0 
27.7002 9.59091 0 
27.889 10.0196 0 
27.8765 10.0341 0 
28.4949 11.3186 0 
28.3154 10.9775 0 
27.9532 10.2339 0 
27.8639 10.0485 0 
28.0276 10.4266 0 
28.1544 10.71 0 
27.8457 10.0695 0 
27.4909 9.25 0 
28.4463 11.3186 0 
27 8 0 
27.8275 10.0905 0 
28.3979 11.3186 0 
27.8015 10.1203 0 
27.6542 9.79545 0 
25.675 2 0 
28.1991 10.9775 0 
27.2691 8.90909 0 
27.9563 10.5042 0 
28.4682 11.5318 0 
28.2625 11.1481 0 
27.7755 10.1502 0 
28.3322 11.3186 0 
27.8502 10.3489 0 
28.4401 11.5318 0 
25.875 4 0 
27.7391 10.1921 0 
28.4019 11.5318 0 
28.0268 10.8438 0 
28.2668 11.3186 0 
27.9602 10.71 0 
28.3498 11.5318 0 
27.4223 9.59091 0 
27.7026 10.2339 0 
27.5927 10 0 
28.0486 10.9775 0 
27.8616 10.6071 0 
27.5762 10.0196 0 
28.1794 11.3186 0 
28.2786 11.5318 0 
27.5519 10.0485 0 
27.6524 10.2914 0 
28.0319 11.1481 0 
27.7108 10.5042 0 
27.5167 10.0905 0 
27.0169 8.90909 0 
28.0924 11.3186 0 
27.6021 10.3489 0 
27.8988 10.9775 0 
28.1818 11.5318 0 
27.7667 10.71 0 
26.625 8 0 
28.255 11.745 0 
27.4664 10.1502 0 
28.2402 11.745 0 
28.2256 11.745 0 
28.2059 11.745 0 
27.978 11.3186 0 
26.7234 8.45455 0 
27.0259 9.25 0 
27.5342 10.4266 0 
28.1863 11.745 0 
27.1442 9.59091 0 
28.0516 11.5318 0 
28.1598 11.745 0 
27.3959 10.2339 0 
28.1334 11.745 0 
27.2793 10 0 
27.2714 10.0098 0 
27.2635 10.0196 0 
27.7086 10.9775 0 
27.6431 10.8438 0 
28.0975 11.745 0 
27.8643 11.3186 0 
27.4661 10.5042 0 
27.2518 10.0341 0 
27.2401 10.0485 0 
28.0617 11.745 0 
26.7648 8.90909 0 
27.5255 10.71 0 
27.7353 11.1481 0 
27.2231 10.0695 0 
28.0133 11.745 0 
27.2061 10.0905 0 
27.8791 11.5318 0 
27.2986 10.3489 0 
27.1818 10.1203 0 
27.9651 11.745 0 
27.3758 10.6071 0 
27.0077 9.79545 0 
27.7174 11.3186 0 
27.1576 10.1502 0 
25 0 0 
27.5193 10.9775 0 
27.9003 11.745 0 
27.1236 10.1921 0 
26.25 8 0 
27.9939 12.0061 0 
25.65 6 0 
27.8359 11.745 0 
26.8136 9.59091 0 
27.0896 10.2339 0 
27.9626 12.0061 0 
27.2853 10.71 0 
25.2 4 0 
27.5713 11.3186 0 
27.9218 12.0061 0 
26.4998 8.90909 0 
27.167 10.5042 0 
27.6541 11.5318 0 
27.0427 10.2914 0 
27.7503 11.745 0 
26.9033 10 0 
27.8677 12.0061 0 
26.8882 10.0196 0 
26.8659 10.0485 0 
26.9958 10.3489 0 
27.2836 10.9775 0 
27.6652 11.745 0 
27.3609 11.1481 0 
27.7955 12.0061 0 
26.499 9.25 0 
[...]
POINT_DATA 1909
SCALARS phi float 1
LOOKUP_TABLE default
VECTORS Displacement float
0 0 0
0 0 0
0 -0.00597693 0
0 0 0
0 -0.00826286 0
0 0 0
0 -0.00715912 0
0 0 0
0 0 0
0 -0.00300812 0
0.0169542 -0.00517853 0
0 0 0
0 0.00392994 0
0.032877 -0.00308154 0
0 0 0
0.0230146 -0.0050698 0
0 0.0128255 0
0 0 0
0.043637 0.00728673 0
0.0296785 -0.00514201 0
0 0 0
0.0493725 0.0237623 0
0 0 0
0.0368072 -0.00552079 0
0 0 0
0.0697409 -0.00339501 0
0.0440076 -0.00621127 0
0.082155 0.000849661 0
0 0 0
0.074822 -0.00374882 0
0.0910412 0.00656015 0
0.0967692 0.013385 0
0.0798172 -0.00419225 0
0.100216 0.0205775 0
0 0 0
0.0847879 -0.00490258 0
0.102937 0.0281347 0
0.0508212 -0.0071703 0
0.0896218 -0.00571748 0
0.105511 0.0370859 0
0 0 0
0.0942263 -0.00670371 0
0.120386 0.0034866 0
0.098602 -0.00779055 0
0.131862 0.0157464 0
0.056819 -0.00834269 0
0 0 0
0.130546 -0.000499306 0
0.136807 0.0324424 0
0.102656 -0.00900148 0
0.137809 0.0563291 0
0.106389 -0.0103025 0
0 0 0
0.139136 -0.0046693 0
0.109756 -0.0116947 0
0.0616445 -0.00968323 0
0.146394 -0.00920679 0
0.112731 -0.0131705 0
0 0 0
0.171317 0.00173367 0
0.17627 0.00562118 0
0.115323 -0.0147101 0
0.174887 -0.00134333 0
0.181123 0.0105525 0
0.152286 -0.0140907 0
0.184787 0.0175668 0
0.183722 0.00750207 0
0.188577 0.0275543 0
0.189374 0.0252038 0
0.178037 -0.00450123 0
0.188231 0.0122107 0
0.1895 0.0344465 0
0.190144 0.0232382 0
0.186061 0.0047789 0
0.190269 0.0320716 0
0.182892 -0.000882637 0
0.190902 0.0212583 0
0.189797 0.0422983 0
0.191286 0.0293135 0
0.190148 0.0424363 0
0.276172 0.073475 0
0.191604 0.0195092 0
0.190549 0.0423955 0
0.340182 0.0954918 0
0.274383 0.0724353 0
0.19117 0.0422841 0
0.338355 0.0944437 0
0.343932 0.0950445 0
0.336256 0.0931723 0
0.191846 0.0420296 0
0.332679 0.0913836 0
0.344048 0.0939872 0
0.271186 0.0703226 0
0.342256 0.0929287 0
0.192662 0.0263205 0
0.192318 0.0177367 0
0.192846 0.0413325 0
0.343889 0.0930628 0
0.329023 0.0894296 0
0.343757 0.0922207 0
0.344422 0.092813 0
0.193879 0.0405858 0
0.338415 0.090056 0
0.117478 -0.0163376 0
0.323841 0.0865164 0
0.343331 0.0911558 0
0.26681 0.0665137 0
0.3442 0.0912532 0
0.342745 0.0899927 0
0.343872 0.0915286 0
0.318833 0.0835947 0
0.0650106 -0.011164 0
0.195289 0.0390734 0
0.34381 0.0907702 0
0.192972 0.0161075 0
0.18834 0.00224871 0
0 0 0
0.341467 0.0881787 0
0.343728 0.0899942 0
0.331935 0.0854589 0
0.191309 0.00808243 0
0.343735 0.0888963 0
0.194465 0.0231282 0
0.312315 0.0792634 0
0.343582 0.0887818 0
0.196671 0.0376242 0
0.343167 0.0897692 0
0.339664 0.0861654 0
0.343422 0.087517 0
0.261345 0.0605431 0
0.343023 0.0881095 0
0.306047 0.0751009 0
0.342299 0.0850292 0
0.33663 0.0829759 0
0.34313 0.0856075 0
0.193669 0.0143967 0
0.342234 0.0878189 0
0.198422 0.035319 0
0.322309 0.07816 0
0.342152 0.0869481 0
0.342772 0.0855103 0
0.342794 0.0836511 0
0.342068 0.0860573 0
0.333031 0.0796886 0
0.181045 -0.00767712 0
0.298024 0.069325 0
0.341932 0.0847236 0
0.342056 0.0808632 0
0.20003 0.0331645 0
0.34179 0.0833736 0
0.338532 0.0790818 0
0.340901 0.0849393 0
0.34234 0.0816056 0
0.254462 0.052379 0
0.196685 0.0197087 0
0.194314 0.0127738 0
0.327628 0.0749302 0
0.341574 0.0814018 0
0.290427 0.0639371 0
0.34074 0.083099 0
0.341017 0.078054 0
0.308828 0.0679683 0
0.341353 0.079441 0
0.340486 0.0803699 0
0.201952 0.0303099 0
0.339542 0.0819512 0
0.321808 0.0702706 0
0.34142 0.0760783 0
0.33945 0.0810097 0
0.338985 0.0741709 0
0.341029 0.0766798 0
0.339357 0.0800733 0
0.190443 -0.000234938 0
0.280856 0.0570098 0
0.330888 0.0706627 0
0.195061 0.0110319 0
0.339219 0.0787034 0
0.340094 0.076476 0
0.340711 0.0740036 0
0.339082 0.0773497 0
0.336302 0.0703213 0
0.203586 0.0276344 0
0.313602 0.0640381 0
0.245821 0.0424539 0
0.338886 0.0754193 0
0.33771 0.077807 0
0.194115 0.00420922 0
0.272061 0.0506923 0
0.340139 0.0704118 0
0.338693 0.0735338 0
0.199237 0.0160073 0
0.33889 0.0687461 0
0.33754 0.075958 0
0.339538 0.0712041 0
0.291044 0.0552444 0
0.195785 0.00935924 0
0.331744 0.0652083 0
0.305236 0.0580977 0
0.338421 0.0709293 0
0.337287 0.0733111 0
0.339425 0.0669898 0
0.205449 0.0245129 0
0.317784 0.0596504 0
0.335918 0.0737461 0
0.338153 0.0684243 0
0.335831 0.0728395 0
0.261394 0.0431638 0
0.336924 0.0696447 0
0.335745 0.0719471 0
0.326405 0.0602068 0
0.33562 0.0706583 0
0.338725 0.064447 0
0.337886 0.0625685 0
0.337792 0.065068 0
0.335497 0.0693976 0
0.293962 0.0506673 0
0.196666 0.00751209 0
0.332541 0.0594806 0
0.206926 0.0215555 0
0.192454 -0.00271451 0
0.335322 0.0676171 0
0.336424 0.064763 0
0.235607 0.0315162 0
0.188269 -0.00723321 0
0.337453 0.061901 0
0.335151 0.0658902 0
0.252187 0.0365188 0
0.333685 0.068501 0
0.335717 0.0583119 0
0.318205 0.0538188 0
0.183683 -0.0109589 0
0.269252 0.0408066 0
0.333527 0.0667973 0
0.334915 0.0635152 0
0.201972 0.0118755 0
0.282928 0.0437155 0
0.197571 0.00574478 0
0.336944 0.0577872 0
0.3333 0.0643956 0
0.334687 0.061236 0
0.33679 0.0561593 0
0.297816 0.0461881 0
0.335777 0.058549 0
0.20855 0.0182736 0
0.331606 0.0529337 0
0.196746 0.000320544 0
0.309207 0.0476007 0
0.332979 0.0610998 0
0.334376 0.0581925 0
0.331479 0.0635248 0
0.241912 0.0290989 0
0.156737 -0.0192515 0
0.336367 0.053948 0
0.331408 0.0627131 0
0.331338 0.0619161 0
0.319565 0.0479954 0
0.331237 0.0607721 0
0.334076 0.0552994 0
0.269107 0.0354973 0
0.331138 0.059654 0
0.33254 0.0567242 0
0.198665 0.00372037 0
0.326402 0.0476707 0
0.19432 -0.00520136 0
0.330995 0.0580807 0
0.334971 0.0509422 0
0.119234 -0.0179989 0
0.209796 0.0151388 0
0.335057 0.0491119 0
0.296438 0.0399596 0
0.330855 0.0565529 0
0.225329 0.0204229 0
0.333682 0.0515293 0
0.234055 0.0229044 0
0.331056 0.0462351 0
0.330658 0.0544499 0
0.246042 0.0259205 0
0.328851 0.0573994 0
0.331959 0.0511072 0
0.25671 0.0281999 0
0.328721 0.055895 0
0.330463 0.0524221 0
0.33331 0.0479816 0
0.204682 0.00702443 0
0.317799 0.0411385 0
0.333082 0.0445123 0
0.271007 0.0308556 0
0.199786 0.00176651 0
0.328534 0.0537882 0
0.330194 0.0496964 0
0.28325 0.0326774 0
0.211109 0.0115667 0
0.328269 0.0508963 0
0.332804 0.0434554 0
0.297028 0.0340864 0
0.329931 0.0470878 0
0.333264 0.0418733 0
0.186086 -0.0142272 0
0.22643 0.0162608 0
0.331222 0.0441378 0
0.199205 -0.00376453 0
0.326234 0.0516526 0
0.196034 -0.00776754 0
0.329025 0.0388577 0
0.307673 0.0346833 0
0.32618 0.0509407 0
0.243299 0.0200645 0
0.327902 0.0470289 0
0.326126 0.0502406 0
0.329573 0.0436725 0
0.32605 0.0492425 0
0.201125 -0.000522816 0
0.332254 0.0392506 0
0.325974 0.048264 0
0.317351 0.0343047 0
0.266831 0.024185 0
0.325864 0.0468901 0
0.329226 0.0404306 0
0.325754 0.0455495 0
0.212138 0.00815333 0
0.327403 0.0420125 0
0.217823 0.00996994 0
0.323543 0.0333743 0
0.221707 0.0109953 0
0.325596 0.0437019 0
0.227417 0.0123349 0
0.292913 0.0270059 0
0.330349 0.0357955 0
0.330982 0.03407 0
0.325439 0.0419108 0
0.233452 0.0136044 0
0.328778 0.0363018 0
0.323097 0.0447316 0
0.202446 -0.00276074 0
0.242989 0.0154307 0
0.327539 0.0313951 0
0.322997 0.0433993 0
0.207192 0.0011501 0
0.325217 0.0394972 0
0.197617 -0.0103287 0
0.25242 0.0169301 0
0.192551 -0.0137145 0
0.326745 0.0357275 0
0.322854 0.0415488 0
0.324996 0.0371774 0
0.328361 0.0324346 0
0.265515 0.0186446 0
0.313945 0.0268565 0
0.328983 0.0292382 0
0.322651 0.0390147 0
0.213155 0.00411509 0
0.277328 0.0197409 0
0.20152 -0.008133 0
0.324693 0.0341315 0
0.218069 0.00538477 0
0.188109 -0.0175557 0
0.322368 0.0356235 0
0.291109 0.0203993 0
0.225188 0.00673826 0
0.320047 0.0382414 0
0.203979 -0.00541867 0
0.327833 0.0276475 0
0.328643 0.0262058 0
0.324396 0.0312377 0
0.320005 0.0376054 0
0.319962 0.0369799 0
0.325926 0.0281723 0
0.319902 0.0361005 0
0.238243 0.00882026 0
0.302015 0.020397 0
0.324662 0.023535 0
0.319842 0.0352381 0
0.321983 0.0312202 0
0.199055 -0.0129713 0
0 0 0
0.319756 0.034038 0
0.324006 0.0275548 0
0.31967 0.0328668 0
0.327271 0.0232733 0
0.213982 0.000247068 0
0.120528 -0.0197669 0
0.312111 0.0194555 0
0.259117 0.0113635 0
0.215266 0.00053067 0
0.319548 0.0312621 0
0.216513 0.000769201 0
0.218384 0.00108882 0
0.319427 0.0297073 0
0.323636 0.0241072 0
0.220597 0.00146574 0
0.205423 -0.00804338 0
0.321478 0.0257126 0
0.318545 0.0181133 0
0.224459 0.00210187 0
0.319261 0.0276213 0
0.285006 0.0130228 0
0.228988 0.00280201 0
0.316396 0.0305738 0
0.209482 -0.00589477 0
0.325049 0.0195421 0
0.325971 0.0180945 0
0.319098 0.0256203 0
0.316326 0.0293842 0
0.236415 0.00382788 0
0.323198 0.0198776 0
0.203734 -0.012828 0
0.316227 0.027768 0
0.3226 0.0157921 0
0.200345 -0.0156108 0
0.24448 0.0047329 0
0.318882 0.0230049 0
0.189859 -0.0208751 0
0.31609 0.0255895 0
0.214688 -0.00436637 0
0.320857 0.0191254 0
0.256282 0.00574508 0
0.318677 0.0205281 0
0.215961 -0.00426635 0
0.307495 0.012009 0
0.322834 0.0159871 0
0.159694 -0.0246327 0
0.207027 -0.0111751 0
0.323927 0.0133882 0
0.315902 0.0227084 0
0.218161 -0.00412586 0
0.267675 0.00627626 0
0.318417 0.0173845 0
0.222705 -0.00375735 0
0.312806 0.0234635 0
0.195778 -0.0202667 0
0.312778 0.0229027 0
0.281691 0.00633788 0
0.315653 0.0190029 0
0.31275 0.0223525 0
0.312713 0.0215968 0
0.201488 -0.0183422 0
0.322361 0.0113201 0
0.312676 0.0208577 0
0.323365 0.010154 0
0.31818 0.0144472 0
0.232154 -0.00299501 0
0.312626 0.0198465 0
0.293338 0.00580798 0
0.32015 0.0115955 0
0.312577 0.0188622 0
0.319231 0.00792873 0
0.215294 -0.00879129 0
0.215651 -0.00882785 0
0.312509 0.0175302 0
0.315338 0.0143953 0
0.208464 -0.0142831 0
0.216013 -0.00886605 0
0.216599 -0.00891115 0
0.312444 0.0162424 0
0.317889 0.0108111 0
0.249573 -0.00193027 0
0.217233 -0.00895032 0
0.304603 0.00432941 0
0.321794 0.00701414 0
0.218357 -0.00896381 0
0.205821 -0.0179292 0
0.312358 0.0145276 0
0.191241 -0.0242126 0
0.219676 -0.00894858 0
0.312276 0.0128826 0
0.222063 -0.00884832 0
0.211761 -0.0140425 0
0.0666732 -0.0127633 0
0.317611 0.00739449 0
0.202477 -0.0210613 0
0.311996 0.00254242 0
0.308815 0.0154646 0
0.314958 0.00885076 0
0.225062 -0.00867101 0
0.312169 0.0107348 0
0.274552 -0.00149992 0
0.308776 0.0144258 0
0.121405 -0.02153 0
0.230297 -0.00835465 0
0.308722 0.0130588 0
0.319347 0.00303419 0
0.31207 0.00868572 0
0.320436 0.00180841 0
0.30865 0.0112559 0
0.209937 -0.0179864 0
0.236586 -0.0080336 0
0.215836 -0.0139388 0
0.317278 0.00318546 0
0.316703 -0.00025564 0
0.216352 -0.0140837 0
0.311942 0.00605848 0
0.308553 0.00889796 0
0.21716 -0.0142975 0
0.246399 -0.00774199 0
0.314492 0.00224034 0
0.299021 -0.00350551 0
0.218539 -0.0145926 0
0.203349 -0.0238751 0
0.311811 0.00353499 0
0.256769 -0.00780719 0
0.316895 -0.000852708 0
0.308426 0.00586162 0
0.318203 -0.00309965 0
0.192347 -0.0275645 0
0.304696 0.00811254 0
0.221277 -0.0149465 0
0.304688 0.00762588 0
0.304681 0.00714776 0
0.304673 0.00651152 0
0.311641 0.000328296 0
0.197964 -0.0268585 0
0.207642 -0.023575 0
0.270359 -0.00845061 0
0.304665 0.0058874 0
0.211166 -0.0216638 0
0.308263 0.00201147 0
0.304654 0.00505056 0
0.227406 -0.0153012 0
0.304644 0.00423131 0
0.216343 -0.018897 0
0.216537 -0.0189875 0
0.216743 -0.0190753 0
0.316285 -0.00581478 0
0.317425 -0.00685086 0
0.304628 0.0031347 0
0.311445 -0.00278929 0
0.282468 -0.00969294 0
0.217036 -0.0192107 0
0.217336 -0.019346 0
0.304612 0.0020627 0
0.204057 -0.0266768 0
0.312619 -0.00879216 0
0.31381 -0.00573243 0
0.217791 -0.0195389 0
0.30459 0.000637679 0
0.218246 -0.019736 0
0.308045 -0.00284543 0
0.240399 -0.015768 0
0.21897 -0.0200006 0
0.304565 -0.000756838 0
0.294897 -0.0119963 0
0.214103 -0.0232486 0
0.311156 -0.00672331 0
0.219744 -0.0202653 0
0 0 0
0.315555 -0.0105563 0
0.30453 -0.00259654 0
0.221132 -0.0205837 0
0.193113 -0.0309156 0
0.300154 -4.60138e-06 0
0.161136 -0.0301924 0
0.304486 -0.00440371 0
0.21226 -0.0259995 0
0.222846 -0.0208728 0
0.300145 -0.000953102 0
0.303484 -0.0145404 0
0.121803 -0.023432 0
0.310824 -0.0105459 0
0.30013 -0.00216748 0
0.204646 -0.0296023 0
0.26239 -0.0170189 0
0.307705 -0.00894932 0
0.226039 -0.0212021 0
0.304409 -0.00676522 0
0.217157 -0.0244709 0
0.30011 -0.00374613 0
0.217399 -0.0246879 0
0.217824 -0.0249912 0
0.230215 -0.0214996 0
0.313829 -0.0162868 0
0.304318 -0.00908757 0
0.312686 -0.0152282 0
0.300081 -0.00581294 0
0.209006 -0.0298939 0
0.218487 -0.0254286 0
0.309198 -0.0181572 0
0.310333 -0.0152602 0
0.237253 -0.0220001 0
0.300034 -0.00852157 0
0.304176 -0.0120847 0
0.219487 -0.0260672 0
0.287803 -0.0205446 0
0.20506 -0.0325189 0
0.199188 -0.0334478 0
0.213023 -0.0302959 0
0.307126 -0.0164791 0
0.245601 -0.0227405 0
0.193614 -0.034274 0
0.295506 -0.00774056 0
0.221124 -0.0269911 0
0.304012 -0.01502 0
0.29551 -0.00821856 0
0.299949 -0.0120537 0
0.311072 -0.0216722 0
0.295513 -0.00869147 0
0.309768 -0.0198139 0
0.295517 -0.00929639 0
0.29552 -0.00989527 0
0.295522 -0.0106768 0
0.217724 -0.0299028 0
0.257419 -0.0242202 0
0.217861 -0.0300114 0
0.217995 -0.0301208 0
0.295523 -0.0114508 0
0.218183 -0.0302842 0
0.224541 -0.0282904 0
0.303763 -0.0187308 0
0.21837 -0.0304486 0
0.29552 -0.0124712 0
0.218634 -0.0306899 0
0.299796 -0.0166071 0
0.295514 -0.0134819 0
0.218898 -0.0309337 0
0.219266 -0.0312851 0
0.205327 -0.0355931 0
0.269067 -0.0263334 0
0.295501 -0.0148171 0
0.31014 -0.026137 0
0.308912 -0.0253103 0
0.219633 -0.0316409 0
0.303474 -0.0223451 0
0.295483 -0.0161386 0
0.303859 -0.0274799 0
0.215704 -0.0337135 0
0.220145 -0.0321442 0
0.306134 -0.0255019 0
0.232621 -0.0301885 0
0.295453 -0.0178773 0
0.213547 -0.0352634 0
0.220649 -0.0326571 0
0.19381 -0.0376249 0
0.299516 -0.0223589 0
0.121767 -0.0252715 0
0.295415 -0.019594 0
0.282033 -0.0296952 0
0.20968 -0.0369852 0
0.221435 -0.0333456 0
0.303048 -0.0268088 0
0.290063 -0.0166605 0
0.307903 -0.0305593 0
0.295353 -0.0218295 0
0.290068 -0.017666 0
0.222297 -0.0340366 0
0.205413 -0.0386569 0
0.290071 -0.0189114 0
0.218196 -0.0360709 0
0.218406 -0.0362926 0
0.295278 -0.0240284 0
0.291788 -0.0333046 0
0.249167 -0.0333236 0
0.29007 -0.020491 0
0.21872 -0.0366224 0
0.223959 -0.034899 0
0.302556 -0.0311367 0
0.219174 -0.037107 0
0.199497 -0.0400453 0
0.299018 -0.0294508 0
0.290059 -0.0225228 0
0.29516 -0.0268483 0
0.226085 -0.0357676 0
0.219812 -0.0378112 0
0.161065 -0.035903 0
0.305558 -0.0367197 0
0.213653 -0.0401814 0
0.29003 -0.0251485 0
0.304526 -0.0360134 0
0.193757 -0.0409823 0
0.295019 -0.029612 0
0.299004 -0.038038 0
0.220675 -0.0388259 0
0.230126 -0.0369494 0
0.205319 -0.0419075 0
0.301851 -0.0363496 0
0.289965 -0.0285284 0
0 0 0
0.294803 -0.0330922 0
0.273075 -0.038779 0
0.284521 -0.0254421 0
0.221858 -0.0402678 0
0.235475 -0.0383102 0
0.284525 -0.0259792 0
0.284528 -0.0265126 0
0.0664208 -0.0144352 0
0.218091 -0.0421894 0
0.284531 -0.0271637 0
0.298164 -0.0379693 0
0.218198 -0.0423071 0
0.218305 -0.0424252 0
0.284533 -0.0278101 0
0.301759 -0.0423959 0
0.218456 -0.0426002 0
0.289832 -0.0328333 0
0.29455 -0.036489 0
0.284534 -0.0286196 0
0.218606 -0.0427761 0
0.301046 -0.0413671 0
0.218818 -0.0430331 0
0.284533 -0.0294227 0
0.219026 -0.0432919 0
0.243974 -0.0405375 0
0.28453 -0.0304466 0
0.223745 -0.0423169 0
0.219317 -0.0436649 0
0.209421 -0.0449066 0
0.121229 -0.0272873 0
0.284524 -0.0314612 0
0.205037 -0.0451429 0
0.219603 -0.0440418 0
0.193431 -0.0443308 0
0.284512 -0.032767 0
0.219993 -0.0445772 0
0.294177 -0.0406809 0
0.213342 -0.0457778 0
0.215622 -0.0455632 0
0.284495 -0.034059 0
0.220373 -0.0451198 0
0.289583 -0.0382324 0
0.253688 -0.0434497 0
0.284467 -0.0357245 0
0.30102 -0.0476941 0
0.220882 -0.045877 0
0.299869 -0.0472804 0
0.198918 -0.0466647 0
0.227576 -0.0453918 0
0.291814 -0.0477073 0
0.284432 -0.0373693 0
0.221369 -0.0466473 0
0.293745 -0.0447528 0
0.296738 -0.0479047 0
0.284374 -0.0394788 0
0.222009 -0.0476944 0
0.265557 -0.0479267 0
0.204535 -0.048589 0
0.277922 -0.0356177 0
0.289139 -0.0448718 0
0.217431 -0.0490489 0
0.284303 -0.0415575 0
0.277928 -0.0367742 0
0.217598 -0.0492834 0
0.222625 -0.0487598 0
0.217845 -0.0496321 0
0.192866 -0.047679 0
0.27793 -0.0381406 0
0.293122 -0.0496619 0
0.298507 -0.0529077 0
0.2182 -0.0501434 0
0.284194 -0.0441961 0
0.277926 -0.0397996 0
0.223445 -0.0501874 0
0.236956 -0.0502977 0
0.218694 -0.0508827 0
0.212548 -0.0512982 0
0.27581 -0.0529204 0
0.277911 -0.0418549 0
0.284063 -0.0467886 0
0.219363 -0.051937 0
0.224251 -0.0516583 0
0.29241 -0.0544147 0
0.277876 -0.0444319 0
0.20384 -0.0520126 0
0.288376 -0.0528476 0
0.283866 -0.0500322 0
0.220245 -0.0534222 0
0.120252 -0.029154 0
0.159498 -0.0417177 0
0.294998 -0.0592025 0
0.225814 -0.0536062 0
0.207938 -0.0536771 0
0.277804 -0.0476756 0
0.294494 -0.0591838 0
0.284614 -0.0592471 0
0.192054 -0.051009 0
0.283636 -0.053208 0
0.221374 -0.0554946 0
0.29141 -0.0600085 0
0.216192 -0.055752 0
0.271096 -0.0456805 0
0.216273 -0.0558726 0
0.216354 -0.0559935 0
0.228035 -0.0556327 0
0.197491 -0.0532958 0
0.2711 -0.046306 0
0.255227 -0.0579833 0
0.21647 -0.0561721 0
0.277669 -0.0517445 0
0.216585 -0.0563514 0
0.271102 -0.0469282 0
0.21675 -0.0566122 0
0.271104 -0.0476519 0
0.216912 -0.0568744 0
0.283297 -0.0571116 0
0.271105 -0.0483715 0
0.217141 -0.0572504 0
0.271104 -0.0492318 0
0.217366 -0.0576292 0
0.202867 -0.0556637 0
0.271101 -0.0500866 0
0.211162 -0.0574338 0
0.288878 -0.0648956 0
0.217675 -0.0581651 0
0.28712 -0.0621934 0
0.271094 -0.0511322 0
0.222716 -0.0583892 0
0.217979 -0.0587065 0
0.23259 -0.0584088 0
0.277426 -0.0567979 0
0.271085 -0.0521703 0
0.282904 -0.0609188 0
0.290275 -0.0653954 0
0.213208 -0.05862 0
0 0 0
0.218383 -0.0594631 0
0.271069 -0.0534604 0
0.191014 -0.0543272 0
0.218777 -0.060231 0
0.271048 -0.0547401 0
0.271015 -0.0563442 0
0.219284 -0.0612921 0
0.238681 -0.06177 0
0.282346 -0.0655085 0
0.270974 -0.0579328 0
0.277003 -0.0629801 0
0.219763 -0.0623781 0
0.224384 -0.0624419 0
0.289244 -0.0713707 0
0.201699 -0.0592818 0
0.270911 -0.0599274 0
0.288702 -0.0716304 0
0.275183 -0.0691074 0
0.118745 -0.0312187 0
0.220348 -0.0638616 0
0.214188 -0.0631085 0
0.270836 -0.0618987 0
0.214328 -0.0633513 0
0.281709 -0.0699652 0
0.214532 -0.0637117 0
0.263021 -0.0571534 0
0.247402 -0.0668152 0
0.285141 -0.0728585 0
0.214823 -0.0642391 0
0.220853 -0.0653901 0
0.270724 -0.0643626 0
0.263025 -0.0585206 0
0.209264 -0.0634478 0
0.189757 -0.0576124 0
0.215224 -0.065 0
0.263024 -0.0600656 0
0.19525 -0.0599158 0
0.276295 -0.0703999 0
0.20494 -0.0632348 0
0.270592 -0.0667916 0
0.21576 -0.0660839 0
0.221448 -0.0674138 0
0.263014 -0.0618586 0
0.286869 -0.0774531 0
0.228019 -0.0685148 0
0.280832 -0.0752178 0
0.26299 -0.0639888 0
0.216443 -0.0676095 0
0.200196 -0.0631293 0
0.256535 -0.0728744 0
0.270398 -0.0697983 0
0.221922 -0.0694835 0
0.156466 -0.0475327 0
0.262943 -0.0665649 0
0.270173 -0.0727533 0
0.217259 -0.0697328 0
0.0641344 -0.0160741 0
0.279848 -0.0802982 0
0.262856 -0.0697138 0
0.188284 -0.0608703 0
0.222435 -0.0721602 0
0.275152 -0.0791039 0
0.269852 -0.0763605 0
0.281324 -0.0832584 0
0.211568 -0.0702378 0
0.211632 -0.0703613 0
0.211695 -0.0704849 0
0.211789 -0.0706676 0
0.265379 -0.080802 0
0.211881 -0.0708508 0
0.218163 -0.0726479 0
0.282121 -0.0845898 0
0.212014 -0.0711173 0
0.262706 -0.0735765 0
0.212145 -0.071385 0
0.212328 -0.0717682 0
0.206632 -0.0699611 0
0.1985 -0.0669228 0
0.254614 -0.0685944 0
0.222924 -0.0748855 0
0.212508 -0.0721539 0
0.116825 -0.0330243 0
0.269484 -0.0798929 0
0.254617 -0.0693422 0
0.237712 -0.0780103 0
0.212755 -0.0726974 0
0.254618 -0.0700875 0
0.278486 -0.0861189 0
0.212993 -0.0732457 0
0.254618 -0.0709162 0
0.254615 -0.0717419 0
0.21331 -0.0740063 0
0.262451 -0.0782988 0
0.25461 -0.0726836 0
0.208075 -0.0725208 0
0.213612 -0.0747754 0
0.254602 -0.0736214 0
0.219099 -0.0765855 0
0.268968 -0.0841309 0
0.192219 -0.0664897 0
0.25459 -0.074717 0
0.186622 -0.0640765 0
0.271001 -0.0882879 0
0.224144 -0.0784836 0
0.214001 -0.0758262 0
0.254573 -0.0758073 0
0.27337 -0.0890522 0
0.214364 -0.0768901 0
0.254549 -0.0771068 0
0.27696 -0.0917638 0
0 0 0
0.254519 -0.0783988 0
0.262029 -0.0840178 0
0.268384 -0.0882634 0
0.214801 -0.0783242 0
0.254476 -0.0799615 0
0.196418 -0.070928 0
0.226235 -0.082351 0
0.254425 -0.0815131 0
0.215204 -0.0797781 0
0.200199 -0.0733996 0
0.219949 -0.0818353 0
0.25435 -0.0834052 0
0.208059 -0.0778219 0
0.208178 -0.0780686 0
0.208351 -0.0784342 0
0.203494 -0.0762713 0
0.267587 -0.0931258 0
0.215659 -0.0817109 0
0.273372 -0.0966087 0
0.208596 -0.0789677 0