# vtk DataFile Version 3.0
File generated from DClib
ASCII

DATASET UNSTRUCTURED_GRID
POINTS 1909 float
50 0 0 
48.75 0 0 
50 1.66667 0 
47.5 0 0 
50 3.33333 0 
46.25 0 0 
50 5 0 
45 0 0 
43.75 0 0 
50 6.66667 0 
43 2 0 
42.5 0 0 
50 8.33333 0 
43 4.66667 0 
41.25 0 0 
41.075 2 0 
50 10 0 
40 0 0 
43 7.33333 0 
39.15 2 0 
38.75 0 0 
43 10 0 
37.5 0 0 
37.225 2 0 
36.25 0 0 
36 4 0 
35.3 2 0 
36 5 0 
35 0 0 
35.325 4 0 
36 6 0 
36 7 0 
34.65 4 0 
36 8 0 
33.75 0 0 
33.975 4 0 
36 9 0 
33.375 2 0 
33.3 4 0 
36 10 0 
32.5 0 0 
32.625 4 0 
33 6 0 
31.95 4 0 
33 7.45455 0 
31.45 2 0 
31.25 0 0 
31.95 6 0 
33 8.79545 0 
31.275 4 0 
33 10 0 
30.6 4 0 
30 0 0 
30.9 6 0 
29.925 4 0 
29.525 2 0 
29.85 6 0 
29.25 4 0 
28.75 0 0 
30 8 0 
30 8.45455 0 
28.575 4 0 
29.625 8 0 
30 8.90909 0 
28.8 6 0 
30 9.25 0 
29.782 8.90909 0 
30 9.59091 0 
29.9487 9.59091 0 
29.25 8 0 
29.7462 9.25 0 
30 9.79545 0 
29.897 9.59091 0 
29.564 8.90909 0 
29.9547 9.79545 0 
29.3462 8.45455 0 
29.84 9.59091 0 
30 10 0 
29.8975 9.79545 0 
29.9882 10 0 
29.9902 10.0098 0 
29.7827 9.59091 0 
29.9765 10 0 
29.9804 10.0196 0 
29.9667 10.0098 0 
29.9591 10 0 
29.9686 10.0196 0 
29.9659 10.0341 0 
29.9569 10.0196 0 
29.9418 10 0 
29.9395 10.0196 0 
29.9515 10.0485 0 
29.932 10.0098 0 
29.9424 10.0341 0 
29.8241 9.79545 0 
29.7181 9.59091 0 
29.9166 10 0 
29.9397 10.0485 0 
29.9222 10.0196 0 
29.9279 10.0485 0 
29.9305 10.0695 0 
29.8914 10 0 
29.9077 10.0341 0 
27.9 4 0 
29.897 10.0196 0 
29.9106 10.0485 0 
29.8817 10.0098 0 
29.907 10.0695 0 
29.8933 10.0485 0 
29.9095 10.0905 0 
29.8719 10.0196 0 
27.6 2 0 
29.8556 10 0 
29.8978 10.0905 0 
29.6531 9.59091 0 
29.3437 8.90909 0 
27.5 0 0 
29.8681 10.0485 0 
29.886 10.0905 0 
29.8574 10.0341 0 
29.4839 9.25 0 
29.8723 10.0695 0 
29.7289 9.79545 0 
29.836 10.0196 0 
29.8687 10.0905 0 
29.8197 10 0 
29.8797 10.1203 0 
29.843 10.0485 0 
29.8513 10.0905 0 
29.81 10.0098 0 
29.8561 10.1203 0 
29.8002 10.0196 0 
29.8221 10.0695 0 
29.8072 10.0485 0 
29.8262 10.0905 0 
29.5782 9.59091 0 
29.8498 10.1502 0 
29.7695 10 0 
29.7858 10.0341 0 
29.838 10.1502 0 
29.8215 10.1203 0 
29.8011 10.0905 0 
29.8262 10.1502 0 
29.7714 10.0485 0 
28.875 8 0 
29.75 10.0196 0 
29.8089 10.1502 0 
29.7654 10.0905 0 
29.7193 10 0 
29.7916 10.1502 0 
29.7505 10.0695 0 
29.8079 10.1921 0 
29.7713 10.1203 0 
29.7096 10.0098 0 
29.6047 9.79545 0 
29.503 9.59091 0 
29.7213 10.0485 0 
29.7665 10.1502 0 
29.6999 10.0196 0 
29.7844 10.1921 0 
29.7296 10.0905 0 
29.6856 10.0341 0 
29.7414 10.1502 0 
29.7497 10.1921 0 
29.6503 10 0 
29.7661 10.2339 0 
29.6712 10.0485 0 
29.6999 10.1203 0 
29.7543 10.2339 0 
29.6796 10.0905 0 
29.7057 10.1502 0 
29.7425 10.2339 0 
29.1235 8.90909 0 
29.6309 10.0196 0 
29.6504 10.0695 0 
29.4146 9.59091 0 
29.7252 10.2339 0 
29.6996 10.1921 0 
29.6701 10.1502 0 
29.7079 10.2339 0 
29.6296 10.0905 0 
29.5813 10 0 
29.6023 10.0485 0 
29.5716 10.0098 0 
29.6828 10.2339 0 
29.7086 10.2914 0 
29.2101 9.25 0 
29.562 10.0196 0 
29.6201 10.1502 0 
29.6578 10.2339 0 
29.4428 9.79545 0 
29.5999 10.1203 0 
29.6849 10.2914 0 
29.6283 10.1921 0 
29.5477 10.0341 0 
29.3259 9.59091 0 
29.5608 10.0905 0 
29.5335 10.0485 0 
29.6221 10.2339 0 
29.6503 10.2914 0 
29.5702 10.1502 0 
29.4881 10 0 
29.5128 10.0695 0 
29.6511 10.3489 0 
29.5866 10.2339 0 
29.6392 10.3489 0 
29.4689 10.0196 0 
29.6002 10.2914 0 
29.6273 10.3489 0 
29.4921 10.0905 0 
29.61 10.3489 0 
29.5286 10.1921 0 
29.5016 10.1502 0 
29.5368 10.2339 0 
29.5926 10.3489 0 
29.4405 10.0485 0 
29.2199 9.59091 0 
29.4626 10.1203 0 
29.3949 10 0 
28.9 8.90909 0 
29.5676 10.3489 0 
29.5291 10.2914 0 
29.3853 10.0098 0 
28.6923 8.45455 0 
29.487 10.2339 0 
29.5426 10.3489 0 
29.3758 10.0196 0 
29.5734 10.4266 0 
29.4331 10.1502 0 
29.3993 10.0905 0 
28.5 8 0 
29.3617 10.0341 0 
29.5496 10.4266 0 
29.5071 10.3489 0 
29.2327 9.79545 0 
29.3475 10.0485 0 
29.1136 9.59091 0 
29.4187 10.2339 0 
29.5148 10.4266 0 
29.4716 10.3489 0 
29.3918 10.1921 0 
29.3271 10.0695 0 
29.4298 10.2914 0 
29.2714 10 0 
29.3406 10.1502 0 
28.9208 9.25 0 
29.3066 10.0905 0 
29.4648 10.4266 0 
29.422 10.3489 0 
29.4958 10.5042 0 
29.2524 10.0196 0 
27.75 6 0 
29.3504 10.2339 0 
29.4837 10.5042 0 
29.4718 10.5042 0 
29.2774 10.1203 0 
29.4543 10.5042 0 
29.3724 10.3489 0 
29.2244 10.0485 0 
29.4369 10.5042 0 
29.3938 10.4266 0 
28.9853 9.59091 0 
29.2481 10.1502 0 
28.6766 8.90909 0 
29.4119 10.5042 0 
29.2934 10.2914 0 
27.225 4 0 
29.148 10 0 
29.2582 10.2339 0 
29.1837 10.0905 0 
29.3869 10.5042 0 
29.1385 10.0098 0 
29.3044 10.3489 0 
29.1291 10.0196 0 
29.2072 10.1921 0 
29.3514 10.5042 0 
29.1152 10.0341 0 
29.3929 10.6071 0 
29.2949 10.4266 0 
29.1013 10.0485 0 
29.3686 10.6071 0 
29.316 10.5042 0 
29.2364 10.3489 0 
28.9623 9.79545 0 
29.1257 10.1502 0 
29.1662 10.2339 0 
29.0811 10.0695 0 
28.8566 9.59091 0 
29.3336 10.6071 0 
29.2666 10.5042 0 
29.0609 10.0905 0 
28.9875 10 0 
29.2835 10.6071 0 
29.1448 10.3489 0 
29.0321 10.1203 0 
29.2173 10.5042 0 
29.1098 10.2914 0 
28.125 8 0 
28.9688 10.0196 0 
29.1594 10.4266 0 
28.611 9.25 0 
29.29 10.71 0 
28.4486 8.90909 0 
29.0443 10.2339 0 
29.0033 10.1502 0 
29.2777 10.71 0 
28.9413 10.0485 0 
29.2128 10.6071 0 
29.2655 10.71 0 
29.1497 10.5042 0 
29.2478 10.71 0 
28.7003 9.59091 0 
29.0533 10.3489 0 
29.2303 10.71 0 
28.9629 10.1921 0 
28.9013 10.0905 0 
29.2051 10.71 0 
29.0822 10.5042 0 
29.1801 10.71 0 
28.827 10 0 
29.1144 10.6071 0 
28.8177 10.0098 0 
28.9225 10.2339 0 
28.8085 10.0196 0 
29.1447 10.71 0 
28.7949 10.0341 0 
28.8443 10.1502 0 
28.977 10.4266 0 
28.9322 10.3489 0 
29.1094 10.71 0 
28.7813 10.0485 0 
28.9912 10.5042 0 
29.1562 10.8438 0 
28.5436 9.59091 0 
28.7615 10.0695 0 
28.8669 10.2914 0 
29.1313 10.8438 0 
28.6184 9.79545 0 
29.0602 10.71 0 
28.2207 8.90909 0 
28.7418 10.0905 0 
28.0378 8.45455 0 
28.9798 10.6071 0 
29.0958 10.8438 0 
29.0112 10.71 0 
28.9005 10.5042 0 
28.7136 10.1203 0 
28.7644 10.2339 0 
28.8113 10.3489 0 
29.0454 10.8438 0 
28.6223 10 0 
28.6854 10.1502 0 
28.2746 9.25 0 
28.9441 10.71 0 
28.6042 10.0196 0 
27.75 8 0 
28.9747 10.8438 0 
28.6459 10.1921 0 
28.5773 10.0485 0 
29.0225 10.9775 0 
28.3532 9.59091 0 
28.7804 10.5042 0 
28.736 10.4266 0 
28.8772 10.71 0 
29.0097 10.9775 0 
28.9971 10.9775 0 
28.799 10.6071 0 
28.9791 10.9775 0 
28.5384 10.0905 0 
28.6064 10.2339 0 
28.6543 10.3489 0 
28.9611 10.9775 0 
28.8769 10.8438 0 
27.9867 8.90909 0 
26.25 0 0 
28.9358 10.9775 0 
28.7871 10.71 0 
28.9106 10.9775 0 
28.6607 10.5042 0 
28.4177 10 0 
26.55 4 0 
28.552 10.2914 0 
28.483 10.1502 0 
28.4087 10.0098 0 
28.8751 10.9775 0 
28.3998 10.0196 0 
28.3866 10.0341 0 
28.8399 10.9775 0 
28.6974 10.71 0 
28.3735 10.0485 0 
28.1625 9.59091 0 
28.7436 10.8438 0 
28.4976 10.3489 0 
28.3543 10.0695 0 
28.791 10.9775 0 
28.4052 10.2339 0 
28.3352 10.0905 0 
28.8519 11.1481 0 
28.1869 9.79545 0 
28.5607 10.6071 0 
28.5053 10.5042 0 
28.7423 10.9775 0 
28.8258 11.1481 0 
28.308 10.1203 0 
28.5787 10.71 0 
27.904 9.25 0 
28.7893 11.1481 0 
28.424 10.4266 0 
27.7528 8.90909 0 
28.2807 10.1502 0 
28.6758 10.9775 0 
27.375 8 0 
28.7383 11.1481 0 
28.1619 10 0 
28.5649 10.8438 0 
28.2425 10.1921 0 
28.6096 10.9775 0 
28.1444 10.0196 0 
28.298 10.3489 0 
28.4605 10.71 0 
26.7 6 0 
27.9315 9.59091 0 
28.3503 10.5042 0 
28.6676 11.1481 0 
28.1187 10.0485 0 
28.2042 10.2339 0 
28.5207 10.9775 0 
28.0813 10.0905 0 
28.6814 11.3186 0 
27.3818 8.45455 0 
28.6679 11.3186 0 
28.1516 10.2914 0 
28.5703 11.1481 0 
28.6544 11.3186 0 
28.6358 11.3186 0 
27.5109 8.90909 0 
28.3072 10.71 0 
28.6173 11.3186 0 
28.2524 10.6071 0 
28.4322 10.9775 0 
28.028 10.1502 0 
28.5915 11.3186 0 
28.0989 10.3489 0 
28.33 10.8438 0 
28.5658 11.3186 0 
28.153 10.5042 0 
27.9061 10 0 
27.8975 10.0098 0 
28.5303 11.3186 0 
28.4384 11.1481 0 
27.7002 9.59091 0 
27.889 10.0196 0 
27.8765 10.0341 0 
28.4949 11.3186 0 
28.3154 10.9775 0 
27.9532 10.2339 0 
27.8639 10.0485 0 
28.0276 10.4266 0 
28.1544 10.71 0 
27.8457 10.0695 0 
27.4909 9.25 0 
28.4463 11.3186 0 
27 8 0 
27.8275 10.0905 0 
28.3979 11.3186 0 
27.8015 10.1203 0 
27.6542 9.79545 0 
25.675 2 0 
28.1991 10.9775 0 
27.2691 8.90909 0 
27.9563 10.5042 0 
28.4682 11.5318 0 
28.2625 11.1481 0 
27.7755 10.1502 0 
28.3322 11.3186 0 
27.8502 10.3489 0 
28.4401 11.5318 0 
25.875 4 0 
27.7391 10.1921 0 
28.4019 11.5318 0 
28.0268 10.8438 0 
28.2668 11.3186 0 
27.9602 10.71 0 
28.3498 11.5318 0 
27.4223 9.59091 0 
27.7026 10.2339 0 
27.5927 10 0 
28.0486 10.9775 0 
27.8616 10.6071 0 
27.5762 10.0196 0 
28.1794 11.3186 0 
28.2786 11.5318 0 
27.5519 10.0485 0 
27.6524 10.2914 0 
28.0319 11.1481 0 
27.7108 10.5042 0 
27.5167 10.0905 0 
27.0169 8.90909 0 
28.0924 11.3186 0 
27.6021 10.3489 0 
27.8988 10.9775 0 
28.1818 11.5318 0 
27.7667 10.71 0 
26.625 8 0 
28.255 11.745 0 
27.4664 10.1502 0 
28.2402 11.745 0 
28.2256 11.745 0 
28.2059 11.745 0 
27.978 11.3186 0 
26.7234 8.45455 0 
27.0259 9.25 0 
27.5342 10.4266 0 
28.1863 11.745 0 
27.1442 9.59091 0 
28.0516 11.5318 0 
28.1598 11.745 0 
27.3959 10.2339 0 
28.1334 11.745 0 
27.2793 10 0 
27.2714 10.0098 0 
27.2635 10.0196 0 
27.7086 10.9775 0 
27.6431 10.8438 0 
28.0975 11.745 0 
27.8643 11.3186 0 
27.4661 10.5042 0 
27.2518 10.0341 0 
27.2401 10.0485 0 
28.0617 11.745 0 
26.7648 8.90909 0 
27.5255 10.71 0 
27.7353 11.1481 0 
27.2231 10.0695 0 
28.0133 11.745 0 
27.2061 10.0905 0 
27.8791 11.5318 0 
27.2986 10.3489 0 
27.1818 10.1203 0 
27.9651 11.745 0 
27.3758 10.6071 0 
27.0077 9.79545 0 
27.7174 11.3186 0 
27.1576 10.1502 0 
25 0 0 
27.5193 10.9775 0 
27.9003 11.745 0 
27.1236 10.1921 0 
26.25 8 0 
27.9939 12.0061 0 
25.65 6 0 
27.8359 11.745 0 
26.8136 9.59091 0 
27.0896 10.2339 0 
27.9626 12.0061 0 
27.2853 10.71 0 
25.2 4 0 
27.5713 11.3186 0 
27.9218 12.0061 0 
26.4998 8.90909 0 
27.167 10.5042 0 
27.6541 11.5318 0 
27.0427 10.2914 0 
27.7503 11.745 0 
26.9033 10 0 
27.8677 12.0061 0 
26.8882 10.0196 0 
26.8659 10.0485 0 
26.9958 10.3489 0 
27.2836 10.9775 0 
27.6652 11.745 0 
27.3609 11.1481 0 
27.7955 12.0061 0 
26.499 9.25 0 
[...]
POINT_DATA 1909
SCALARS phi float 1
LOOKUP_TABLE default
VECTORS Displacement float
0 0 0
0 0 0
0 -0.000290823 0
0 0 0
0 -0.000396473 0
0 0 0
0 -0.000333027 0
0 0 0
0 0 0
0 -0.000118867 0
0.00085808 -0.00026556 0
0 0 0
0 0.000236078 0
0.00168213 -0.000163558 0
0 0 0
0.00115163 -0.000262353 0
0 0.000712909 0
0 0 0
0.0022528 0.000376279 0
0.00147137 -0.000266798 0
0 0 0
0.00258842 0.00122236 0
0 0 0
0.00181046 -0.000284704 0
0 0 0
0.00345812 -0.000201585 0
0.00215082 -0.000315913 0
0.00411563 -6.56719e-06 0
0 0 0
0.00370192 -0.000218858 0
0.00461427 0.000266264 0
0.0049735 0.000599415 0
0.00393885 -0.000239773 0
0.00522592 0.000966624 0
0 0 0
0.00417292 -0.000272975 0
0.00538576 0.00135595 0
0.0024729 -0.000358536 0
0.004399 -0.000310465 0
0.00547145 0.00174816 0
0 0 0
0.00461287 -0.000355098 0
0.00597258 9.02327e-05 0
0.00481608 -0.000403963 0
0.0066292 0.000614274 0
0.00275926 -0.000410845 0
0 0 0
0.00642977 -9.89911e-05 0
0.00696731 0.00124977 0
0.005004 -0.000457884 0
0.00697912 0.00191345 0
0.0051781 -0.000515828 0
0 0 0
0.00680976 -0.000286227 0
0.00533611 -0.000577952 0
0.00299479 -0.000471829 0
0.00713138 -0.000484713 0
0.00547747 -0.000644125 0
0 0 0
0.00835361 -6.42366e-05 0
0.00858834 7.93319e-05 0
0.00560218 -0.000713838 0
0.00849871 -0.000193318 0
0.00881805 0.000245387 0
0.00739698 -0.000698895 0
0.00896376 0.000402893 0
0.00892363 0.00013735 0
0.0090835 0.000592446 0
0.00911697 0.000526704 0
0.00862628 -0.000322409 0
0.0090918 0.000235294 0
0.00911579 0.000728691 0
0.00914398 0.000470196 0
0.00901614 3.01297e-05 0
0.00915034 0.00064013 0
0.00885602 -0.000185906 0
0.00916957 0.000416398 0
0.00908162 0.000879787 0
0.00918867 0.000554935 0
0.00909549 0.000879584 0
0.00980852 0.00116468 0
0.00919237 0.000369257 0
0.00911315 0.000870443 0
0.0099483 0.0012041 0
0.00968603 0.00106386 0
0.00914094 0.000832671 0
0.00992167 0.00114188 0
0.00989283 0.00113633 0
0.00988432 0.00108524 0
0.0091692 0.000798315 0
0.00981261 0.00100346 0
0.00983535 0.00106234 0
0.00956743 0.000919384 0
0.00986336 0.00101534 0
0.00923251 0.000477466 0
0.00922031 0.000327316 0
0.00920995 0.00074672 0
0.00982605 0.00100045 0
0.00974276 0.000932934 0
0.00981445 0.000945985 0
0.00978452 0.000961518 0
0.00925002 0.000707738 0
0.00978584 0.000883139 0
0.00570795 -0.00078806 0
0.00965939 0.000848547 0
0.00979403 0.00088145 0
0.00948065 0.000773763 0
0.0097702 0.000859985 0
0.00977152 0.000831721 0
0.0097558 0.000871959 0
0.00960585 0.00078749 0
0.00316576 -0.000541004 0
0.00930381 0.000665802 0
0.00975101 0.000826546 0
0.00924915 0.000290622 0
0.00910357 -7.08953e-05 0
0 0 0
0.00973945 0.000779832 0
0.00974622 0.000791184 0
0.00968091 0.000768777 0
0.00920143 9.2573e-05 0
0.00974391 0.000768817 0
0.0092943 0.000416875 0
0.00956005 0.000721405 0
0.00973989 0.000751472 0
0.00935581 0.000634224 0
0.00975302 0.00077411 0
0.00970751 0.000738537 0
0.0097336 0.000720972 0
0.00947081 0.000663861 0
0.00975019 0.000722885 0
0.00954529 0.000671577 0
0.00970812 0.000692549 0
0.0096721 0.000688554 0
0.00972488 0.000687039 0
0.00928485 0.000254571 0
0.00976786 0.000709716 0
0.00942096 0.000603045 0
0.00960913 0.000663809 0
0.00976947 0.000692765 0
0.00974729 0.000674355 0
0.0097177 0.000658839 0
0.00977121 0.000677744 0
0.00964731 0.000646425 0
0.0087494 -0.00045346 0
0.00954337 0.000618852 0
0.00977315 0.000658999 0
0.00970987 0.000625898 0
0.00947945 0.000570668 0
0.00977502 0.000642549 0
0.00967751 0.000618465 0
0.00982467 0.000657825 0
0.00974502 0.000626135 0
0.00952294 0.00057348 0
0.00938373 0.000362733 0
0.00932372 0.000221082 0
0.00963359 0.000598085 0
0.00977779 0.000621851 0
0.0095623 0.000573028 0
0.00982576 0.000637219 0
0.00970603 0.000598275 0
0.00960336 0.000565875 0
0.00978052 0.000604112 0
0.00982922 0.000611685 0
0.00954322 0.000524522 0
0.00988012 0.000622906 0
0.0096373 0.00055753 0
0.00974686 0.000577785 0
0.00988107 0.000615584 0
0.00970735 0.000565208 0
0.00978483 0.000582003 0
0.0098823 0.000608394 0
0.00918703 -0.000166997 0
0.00959442 0.000520865 0
0.00967722 0.000545916 0
0.00936912 0.000182651 0
0.00988432 0.000598188 0
0.00983586 0.000581181 0
0.00978915 0.000562117 0
0.00988668 0.000588328 0
0.00971316 0.000535182 0
0.00959346 0.000472755 0
0.00965599 0.00050965 0
0.00961379 0.000471265 0
0.00989003 0.000574867 0
0.00996062 0.000589335 0
0.00931599 -3.26485e-05 0
0.0096333 0.000469477 0
0.00979705 0.00053509 0
0.00989359 0.000561759 0
0.00949091 0.000289718 0
0.0097607 0.000521161 0
0.00996167 0.000577602 0
0.00984669 0.000543289 0
0.00965957 0.00046585 0
0.00941637 0.000143899 0
0.00973071 0.000491944 0
0.00968502 0.00046175 0
0.00989874 0.000543512 0
0.00996417 0.000560623 0
0.00980575 0.000507773 0
0.00964898 0.000413145 0
0.00972006 0.000455184 0
0.0100326 0.000560432 0
0.0099041 0.000525158 0
0.0100331 0.000555138 0
0.00968001 0.000409148 0
0.00996924 0.000535926 0
0.0100337 0.000549777 0
0.00975326 0.00044796 0
0.0100348 0.000541798 0
0.0098648 0.000489515 0
0.00982213 0.000467153 0
0.00991229 0.000498726 0
0.010036 0.000533646 0
0.00972534 0.000401788 0
0.00946958 9.53025e-05 0
0.00979828 0.000436946 0
0.00969648 0.000353585 0
0.00926852 -0.00026243 0
0.010038 0.000521643 0
0.00997831 0.000499544 0
0.00971108 0.000351658 0
0.00907695 -0.000439871 0
0.00992136 0.00047119 0
0.0100402 0.000509317 0
0.00972566 0.000349578 0
0.0101215 0.000523866 0
0.00984098 0.000425397 0
0.00978737 0.000388954 0
0.0088596 -0.000588084 0
0.00974602 0.000346295 0
0.0101224 0.000513073 0
0.0100438 0.000491326 0
0.00960451 0.000183949 0
0.00976613 0.000342735 0
0.00952236 4.47377e-05 0
0.00993561 0.000431671 0
0.0101241 0.0004967 0
0.0100479 0.000472786 0
0.00989766 0.000408566 0
0.00979466 0.00033708 0
0.00999396 0.000445241 0
0.00975242 0.000281879 0
0.00986955 0.000368055 0
0.00943522 -0.00016226 0
0.00982264 0.000330978 0
0.0101275 0.000472008 0
0.0100544 0.000445983 0
0.0102011 0.000486463 0
0.0097776 0.000277211 0
0.00760289 -0.00092934 0
0.00995134 0.000391024 0
0.0102015 0.000480884 0
0.0102019 0.000475246 0
0.00986146 0.00032149 0
0.0102026 0.000466892 0
0.0100616 0.000418361 0
0.00981452 0.000269503 0
0.0102034 0.000458413 0
0.0101339 0.000435058 0
0.00958124 -1.90139e-05 0
0.00989906 0.000311228 0
0.0093472 -0.000359228 0
0.0102047 0.000445946 0
0.0100205 0.000365763 0
0.00579612 -0.000864903 0
0.00980301 0.000208605 0
0.00997448 0.000335135 0
0.00986654 0.00025691 0
0.0102063 0.000433235 0
0.00981495 0.000206032 0
0.0100728 0.000379276 0
0.00982681 0.000203378 0
0.0099498 0.000295705 0
0.0102088 0.000414748 0
0.0098439 0.000199338 0
0.0102946 0.000435211 0
0.0101455 0.000380476 0
0.00986083 0.000195128 0
0.0102953 0.00042341 0
0.0102118 0.000395837 0
0.010085 0.000339222 0
0.0097263 3.76803e-05 0
0.00993744 0.000236456 0
0.00999832 0.000278982 0
0.0098851 0.00018871 0
0.00963762 -8.52251e-05 0
0.0102966 0.000405895 0
0.0102164 0.000368718 0
0.009909 0.000181946 0
0.00986351 0.000113822 0
0.0102991 0.000379964 0
0.0101027 0.000284064 0
0.00994239 0.000171725 0
0.0102216 0.000340948 0
0.0100616 0.000254339 0
0.0089624 -0.00072644 0
0.00988491 0.000107955 0
0.0101651 0.000301514 0
0.0095528 -0.000308269 0
0.0103767 0.000382036 0
0.0094222 -0.000460235 0
0.0100303 0.00020368 0
0.00997501 0.000160886 0
0.010377 0.000375843 0
0.00991616 9.87756e-05 0
0.0103037 0.000341809 0
0.0103774 0.000369625 0
0.0102296 0.000301812 0
0.0103779 0.000360544 0
0.00970012 -0.00016838 0
0.0101211 0.000227999 0
0.0103786 0.000351389 0
0.0100193 0.000144718 0
0.00996044 8.44434e-05 0
0.0103796 0.000338087 0
0.0102383 0.000261774 0
0.0103807 0.000324623 0
0.00991903 1.68939e-05 0
0.0103117 0.000286221 0
0.00992905 1.36899e-05 0
0.0100621 0.000127516 0
0.00993901 1.04261e-05 0
0.0103825 0.000305239 0
0.00995352 5.5162e-06 0
0.0100214 6.20937e-05 0
0.0101958 0.000190193 0
0.0101464 0.000152283 0
0.0103845 0.000285544 0
0.00996791 4.81379e-07 0
0.010251 0.0002065 0
0.0104683 0.000310042 0
0.00975827 -0.000253796 0
0.00998854 -7.03811e-06 0
0.0101185 0.000102307 0
0.010469 0.000296782 0
0.00985582 -0.000159181 0
0.0103877 0.000257531 0
0.00949117 -0.000564702 0
0.0100089 -1.48051e-05 0
0.00926116 -0.000706613 0
0.0103254 0.000206398 0
0.01047 0.000277527 0
0.0103913 0.000228988 0
0.0102645 0.000150078 0
0.0100375 -2.62944e-05 0
0.0101022 2.74065e-05 0
0.0101719 7.54878e-05 0
0.0104718 0.000249563 0
0.00998404 -0.000108561 0
0.0100655 -3.82551e-05 0
0.00966447 -0.000475646 0
0.0103967 0.000188984 0
0.0100021 -0.000115613 0
0.00905172 -0.000868583 0
0.010475 0.000209117 0
0.0101037 -5.57676e-05 0
0.0100285 -0.000126387 0
0.0105454 0.000234769 0
0.00982224 -0.000359985 0
0.0102833 7.3785e-05 0
0.0102396 3.70151e-05 0
0.0104026 0.000148175 0
0.0105457 0.000227682 0
0.010546 0.000220594 0
0.010347 9.39206e-05 0
0.0105464 0.000210443 0
0.010066 -0.000142758 0
0.0101407 -7.41202e-05 0
0.0102047 -2.58729e-05 0
0.0105469 0.000200258 0
0.0104804 0.000151064 0
0.00955572 -0.000674237 0
0 0 0
0.0105477 0.000185686 0
0.0104112 9.19642e-05 0
0.0105485 0.000171015 0
0.0103024 -3.78652e-06 0
0.0100428 -0.00023604 0
0.00586356 -0.000947267 0
0.0101898 -0.000100658 0
0.0101178 -0.000167552 0
0.0100512 -0.000239816 0
0.0105498 0.000150154 0
0.0100595 -0.000243635 0
0.0100717 -0.000249345 0
0.0105511 0.000129085 0
0.0104204 3.46607e-05 0
0.0100838 -0.000255146 0
0.00988009 -0.000468158 0
0.0104894 6.86834e-05 0
0.0102366 -0.000128592 0
0.0101012 -0.000263723 0
0.0105532 9.94196e-05 0
0.0101869 -0.000204965 0
0.0101183 -0.000272489 0
0.0106246 0.000134052 0
0.00998776 -0.00041605 0
0.0103784 -6.09746e-05 0
0.0103275 -0.000106353 0
0.0105555 6.93739e-05 0
0.0106252 0.00011864 0
0.0101424 -0.000285302 0
0.0104332 -4.27093e-05 0
0.00976779 -0.000667628 0
0.010626 9.68506e-05 0
0.0102964 -0.000168357 0
0.00961283 -0.000786569 0
0.010166 -0.000298485 0
0.010559 2.76045e-05 0
0.00913046 -0.00101441 0
0.0106274 6.58982e-05 0
0.0101085 -0.000397486 0
0.0105035 -4.64261e-05 0
0.0101983 -0.000317547 0
0.0105627 -1.47808e-05 0
0.0101236 -0.000405617 0
0.0102753 -0.000261085 0
0.0104465 -0.000121378 0
0.00774462 -0.00117523 0
0.00994206 -0.000601124 0
0.0103521 -0.000210285 0
0.0106295 2.19836e-05 0
0.0101456 -0.000417889 0
0.0102297 -0.000337289 0
0.0105681 -7.28022e-05 0
0.0101768 -0.000436259 0
0.0106855 2.81417e-05 0
0.00940565 -0.000988681 0
0.0106858 1.97547e-05 0
0.0102714 -0.000365511 0
0.010633 -3.99681e-05 0
0.010686 1.13899e-05 0
0.0106864 -2.70833e-07 0
0.00966509 -0.000904598 0
0.010464 -0.000225316 0
0.0106868 -1.19301e-05 0
0.01042 -0.000268863 0
0.0105738 -0.000131709 0
0.01022 -0.000463582 0
0.0106873 -2.82739e-05 0
0.0103114 -0.000394919 0
0.010524 -0.000204116 0
0.0106879 -4.46568e-05 0
0.0103823 -0.000344442 0
0.0101656 -0.000560536 0
0.0101725 -0.000564832 0
0.0106888 -6.75827e-05 0
0.0106385 -0.000126549 0
0.00999591 -0.00073573 0
0.0101794 -0.000569162 0
0.0101894 -0.000575608 0
0.0106897 -9.06204e-05 0
0.0105817 -0.000210904 0
0.0102778 -0.000504003 0
0.0101994 -0.000582126 0
0.0103625 -0.000436409 0
0.0104812 -0.000330595 0
0.0102137 -0.000591704 0
0.00985982 -0.000887828 0
0.010691 -0.000122641 0
0.00919489 -0.00116331 0
0.0102278 -0.000601431 0
0.0106924 -0.000154892 0
0.0102477 -0.000615546 0
0.0101115 -0.000741296 0
0.00325881 -0.000617641 0
0.0105899 -0.000291216 0
0.00970968 -0.00102438 0
0.0104104 -0.000479834 0
0.010738 -0.000111395 0
0.0106467 -0.000245985 0
0.0102671 -0.000629956 0
0.0106944 -0.000199251 0
0.0103519 -0.00056347 0
0.0107385 -0.000129938 0
0.00591205 -0.00103063 0
0.0102938 -0.000650618 0
0.0107392 -0.000155281 0
0.0105512 -0.00041508 0
0.0106965 -0.000244011 0
0.0105023 -0.000466456 0
0.0107402 -0.000190315 0
0.0100505 -0.000898993 0
0.0103197 -0.000671836 0
0.0102246 -0.000761878 0
0.0106005 -0.000397003 0
0.010469 -0.000540159 0
0.0102369 -0.000770994 0
0.0106994 -0.00030475 0
0.0107416 -0.000238911 0
0.0102548 -0.000784657 0
0.0103541 -0.000701901 0
0.0106582 -0.000407973 0
0.010442 -0.000650334 0
0.0102802 -0.000804925 0
0.0097488 -0.00115066 0
0.0107024 -0.000366097 0
0.0103872 -0.000732965 0
0.0106108 -0.000503976 0
0.0107436 -0.000306149 0
0.0105219 -0.000603451 0
0.00924735 -0.00131535 0
0.0107676 -0.00025863 0
0.0103153 -0.000834721 0
0.0107679 -0.000268908 0
0.0107681 -0.000279143 0
0.0107684 -0.00029291 0
0.0107064 -0.000448004 0
0.00950592 -0.00128365 0
0.0099361 -0.00114051 0
0.0104295 -0.000776435 0
0.0107687 -0.000306645 0
0.0100945 -0.00106341 0
0.0107464 -0.000398514 0
0.0107691 -0.000325372 0
0.0103623 -0.000878195 0
0.0107695 -0.000344089 0
0.0102715 -0.000964081 0
0.0102771 -0.000968851 0
0.0102826 -0.000973647 0
0.0106231 -0.00064175 0
0.0105825 -0.000689817 0
0.01077 -0.000369724 0
0.0107103 -0.000530707 0
0.0104691 -0.000821597 0
0.0102907 -0.000980767 0
0.0102987 -0.000987946 0
0.0107705 -0.000395389 0
0.00978023 -0.00127798 0
0.0105435 -0.000775914 0
0.0106725 -0.000623104 0
0.0103102 -0.000998454 0
0.0107712 -0.000430464 0
0.0103215 -0.00100908 0
0.01075 -0.000523996 0
0.0104224 -0.0009412 0
0.0103374 -0.00102443 0
0.0107719 -0.000465636 0
0.0105175 -0.000883927 0
0.0102103 -0.00114135 0
0.010715 -0.000639068 0
0.010353 -0.00104002 0
0 0 0
0.010634 -0.000780489 0
0.0107728 -0.000513356 0
0.0103744 -0.00106223 0
0.00928526 -0.00146961 0
0.010775 -0.000449263 0
0.00781867 -0.0014352 0
0.0107736 -0.000561273 0
0.010134 -0.00125967 0
0.0103951 -0.00108491 0
0.0107754 -0.000472406 0
0.0105612 -0.000948956 0
0.00593828 -0.00112108 0
0.0107192 -0.000748286 0
0.010776 -0.000502752 0
0.00980537 -0.00141281 0
0.0104954 -0.00103188 0
0.0107542 -0.000691959 0
0.0104226 -0.00111682 0
0.0107746 -0.000625564 0
0.0103128 -0.00120739 0
0.0107766 -0.0005433 0
0.0103225 -0.00121738 0
0.0103367 -0.00123229 0
0.0104489 -0.00114957 0
0.0106452 -0.000954909 0
0.0107755 -0.000690171 0
0.0106871 -0.000901813 0
0.0107774 -0.000598009 0
0.00999006 -0.00143013 0
0.0103568 -0.00125429 0
0.0106111 -0.00103729 0
0.0107236 -0.00088839 0
0.0104824 -0.00119508 0
0.0107782 -0.000671978 0
0.0107763 -0.000775625 0
0.0103846 -0.00128636 0
0.0105771 -0.00116129 0
0.00982275 -0.00154823 0
0.00956167 -0.00158794 0
0.0101599 -0.00145637 0
0.0107578 -0.000912615 0
0.0105138 -0.00124204 0
0.00931078 -0.00162611 0
0.0107546 -0.000650916 0
0.0104215 -0.00133271 0
0.0107768 -0.00086149 0
0.0107548 -0.000663978 0
0.0107789 -0.0007716 0
0.0106531 -0.00112968 0
0.010755 -0.000676983 0
0.0107265 -0.00102913 0
0.0107552 -0.000693718 0
0.0107554 -0.000710398 0
0.0107557 -0.00073233 0
0.0103377 -0.00145031 0
0.0105519 -0.00130644 0
0.0103421 -0.00145549 0
0.0103464 -0.00146069 0
0.0107559 -0.000754214 0
0.0103527 -0.0014684 0
0.0104685 -0.0013991 0
0.0107768 -0.000973137 0
0.010359 -0.00147616 0
0.0107561 -0.000783336 0
0.0103679 -0.00148748 0
0.0107789 -0.000904605 0
0.0107563 -0.000812422 0
0.0103768 -0.00149891 0
0.0103892 -0.00151535 0
0.00983276 -0.00169227 0
0.010586 -0.00137321 0
0.0107565 -0.000851279 0
0.0106956 -0.00125293 0
0.0107278 -0.00120554 0
0.0104013 -0.00153198 0
0.0107759 -0.00108518 0
0.0107566 -0.000890122 0
0.0106577 -0.00134387 0
0.0102619 -0.00161913 0
0.0104178 -0.00155559 0
0.0107576 -0.00119602 0
0.0105249 -0.00149347 0
0.0107566 -0.000941879 0
0.0101746 -0.00168681 0
0.0104338 -0.00157958 0
0.00932218 -0.00178406 0
0.0107774 -0.0010799 0
0.00594414 -0.00120971 0
0.0107563 -0.000993649 0
0.0106244 -0.00146343 0
0.0100128 -0.00176067 0
0.0104548 -0.00161317 0
0.0107736 -0.00122802 0
0.0106956 -0.00090708 0
0.010726 -0.00138193 0
0.0107558 -0.0010621 0
0.010696 -0.000936981 0
0.0104749 -0.00164744 0
0.00983471 -0.00183652 0
0.0106964 -0.000974381 0
0.0103473 -0.00173492 0
0.0103549 -0.00174565 0
0.0107549 -0.00113059 0
0.0106561 -0.00155731 0
0.0105869 -0.00162649 0
0.0106967 -0.00102234 0
0.0103658 -0.0017616 0
0.0105004 -0.0016948 0
0.0107696 -0.00137099 0
0.0103813 -0.00178504 0
0.00957423 -0.00189893 0
0.0107722 -0.00130708 0
0.0106969 -0.00108486 0
0.0107533 -0.00122009 0
0.0105239 -0.00174338 0
0.0104025 -0.00181903 0
0.00782291 -0.00170734 0
0.0107193 -0.00159759 0
0.0101723 -0.00191658 0
0.0106967 -0.00116702 0
0.0107476 -0.00155063 0
0.00932146 -0.0019434 0
0.010751 -0.0013096 0
0.010687 -0.00168204 0
0.0104305 -0.00186778 0
0.0105521 -0.0018096 0
0.00982797 -0.00199051 0
0.0107622 -0.00154929 0
0.0106956 -0.00127507 0
0 0 0
0.0107473 -0.00142482 0
0.0106457 -0.00181206 0
0.0106046 -0.00117819 0
0.0104658 -0.00193702 0
0.010577 -0.00187785 0
0.0106048 -0.0011953 0
0.0106049 -0.00121236 0
0.00326144 -0.000699396 0
0.0103362 -0.00201716 0
0.0106051 -0.00123324 0
0.0107599 -0.00159548 0
0.0103395 -0.00202267 0
0.0103428 -0.00202819 0
0.0106052 -0.00125405 0
0.0107072 -0.00181208 0
0.0103476 -0.00203637 0
0.0106927 -0.00141642 0
0.0107424 -0.00153992 0
0.0106053 -0.00128025 0
0.0103524 -0.00204458 0
0.0107518 -0.00172705 0
0.0103592 -0.00205655 0
0.0106053 -0.00130637 0
0.0103659 -0.0020686 0
0.0106042 -0.00196954 0
0.0106052 -0.00133987 0
0.0105073 -0.00203441 0
0.0103753 -0.0020859 0
0.00999296 -0.0021347 0
0.00592619 -0.00130726 0
0.0106051 -0.00137329 0
0.00981273 -0.00214429 0
0.0103844 -0.00210336 0
0.00930751 -0.00210338 0
0.0106048 -0.00141661 0
0.0103968 -0.00212807 0
0.0107348 -0.00168542 0
0.0101508 -0.00218001 0
0.0102397 -0.00217209 0
0.0106043 -0.00145984 0
0.0104087 -0.00215308 0
0.0106867 -0.0015994 0
0.0106257 -0.00206444 0
0.0106035 -0.00151607 0
0.010718 -0.00198154 0
0.0104243 -0.00218796 0
0.0107349 -0.00194349 0
0.0095454 -0.00221459 0
0.0105513 -0.00217017 0
0.0106851 -0.0020675 0
0.0106024 -0.00157216 0
0.010439 -0.0022234 0
0.0107253 -0.00183043 0
0.0107344 -0.00195281 0
0.0106006 -0.00164491 0
0.0104574 -0.00227214 0
0.0106448 -0.00218987 0
0.00978709 -0.0023088 0
0.0104583 -0.00151508 0
0.0106748 -0.00183283 0
0.0102992 -0.00233866 0
0.0105983 -0.00171745 0
0.0104587 -0.00155464 0
0.010305 -0.00234991 0
0.0104742 -0.00232189 0
0.0103133 -0.00236663 0
0.00928206 -0.00226402 0
0.0104589 -0.00160174 0
0.0107109 -0.00201002 0
0.0107131 -0.00215817 0
0.010325 -0.0023911 0
0.0105947 -0.00181078 0
0.0104589 -0.00165941 0
0.0104939 -0.00238933 0
0.0105897 -0.00235746 0
0.0103409 -0.00242645 0
0.0101092 -0.00244105 0
0.0106547 -0.00232001 0
0.0104585 -0.00173157 0
0.0105904 -0.00190377 0
0.0103616 -0.0024769 0
0.0105106 -0.00245847 0
0.0106937 -0.00218837 0
0.0104573 -0.00182314 0
0.00975256 -0.00247259 0
0.0106533 -0.00212506 0
0.0105838 -0.00202192 0
0.0103872 -0.00254803 0
0.00588708 -0.00139849 0
0.00775662 -0.00198837 0
0.0106803 -0.00241294 0
0.010528 -0.00255083 0
0.0099178 -0.00255237 0
0.0104547 -0.00194009 0
0.0106867 -0.00238344 0
0.0106544 -0.00248888 0
0.00924461 -0.00242434 0
0.010576 -0.00213946 0
0.0104165 -0.00264727 0
0.0106686 -0.00240426 0
0.0102377 -0.00265471 0
0.010278 -0.00187052 0
0.0102402 -0.00266044 0
0.0102426 -0.00266618 0
0.0105404 -0.0026459 0
0.00947712 -0.00253304 0
0.0102781 -0.0018933 0
0.010608 -0.00261256 0
0.0102463 -0.00267466 0
0.0104495 -0.00208936 0
0.0102499 -0.00268317 0
0.0102782 -0.00191601 0
0.0102551 -0.00269557 0
0.0102783 -0.00194247 0
0.0102601 -0.00270803 0
0.0105645 -0.00228647 0
0.0102783 -0.00196886 0
0.0102672 -0.00272588 0
0.0102782 -0.00200051 0
0.010274 -0.00274386 0
0.00970548 -0.00264773 0
0.010278 -0.00203208 0
0.0100405 -0.00273297 0
0.0106402 -0.00266416 0
0.0102832 -0.00276924 0
0.0106162 -0.00248275 0
0.0102776 -0.00207083 0
0.0104457 -0.00278425 0
0.010292 -0.00279487 0
0.0105491 -0.00277089 0
0.0104401 -0.00227863 0
0.0102771 -0.00210947 0
0.0105512 -0.00243239 0
0.010639 -0.00261767 0
0.0101175 -0.00279003 0
0 0 0
0.0103034 -0.00283049 0
0.0102763 -0.00215773 0
0.00919638 -0.00258459 0
0.010314 -0.00286657 0
0.0102753 -0.00220583 0
0.0102737 -0.00226648 0
0.010327 -0.00291599 0
0.0105497 -0.00289989 0
0.010532 -0.00261147 0
0.0102718 -0.00232691 0
0.0104236 -0.00251577 0
0.0103386 -0.00296622 0
0.0104674 -0.00297124 0
0.0106047 -0.0028868 0
0.00964931 -0.00282143 0
0.010269 -0.0024033 0
0.0105976 -0.00286967 0
0.0105836 -0.00295428 0
0.00582238 -0.00149981 0
0.0103517 -0.003034 0
0.0101412 -0.00300386 0
0.0102656 -0.00247935 0
0.0101457 -0.00301542 0