# vtk DataFile Version 3.0
File generated from DClib
ASCII

DATASET UNSTRUCTURED_GRID
POINTS 1909 float
50 0 0 
48.75 0 0 
50 1.66667 0 
47.5 0 0 
50 3.33333 0 
46.25 0 0 
50 5 0 
45 0 0 
43.75 0 0 
50 6.66667 0 
43 2 0 
42.5 0 0 
50 8.33333 0 
43 4.66667 0 
41.25 0 0 
41.075 2 0 
50 10 0 
40 0 0 
43 7.33333 0 
39.15 2 0 
38.75 0 0 
43 10 0 
37.5 0 0 
37.225 2 0 
36.25 0 0 
36 4 0 
35.3 2 0 
36 5 0 
35 0 0 
35.325 4 0 
36 6 0 
36 7 0 
34.65 4 0 
36 8 0 
33.75 0 0 
33.975 4 0 
36 9 0 
33.375 2 0 
33.3 4 0 
36 10 0 
32.5 0 0 
32.625 4 0 
33 6 0 
31.95 4 0 
33 7.45455 0 
31.45 2 0 
31.25 0 0 
31.95 6 0 
33 8.79545 0 
31.275 4 0 
33 10 0 
30.6 4 0 
30 0 0 
30.9 6 0 
29.925 4 0 
29.525 2 0 
29.85 6 0 
29.25 4 0 
28.75 0 0 
30 8 0 
30 8.45455 0 
28.575 4 0 
29.625 8 0 
30 8.90909 0 
28.8 6 0 
30 9.25 0 
29.782 8.90909 0 
30 9.59091 0 
29.9487 9.59091 0 
29.25 8 0 
29.7462 9.25 0 
30 9.79545 0 
29.897 9.59091 0 
29.564 8.90909 0 
29.9547 9.79545 0 
29.3462 8.45455 0 
29.84 9.59091 0 
30 10 0 
29.8975 9.79545 0 
29.9882 10 0 
29.9902 10.0098 0 
29.7827 9.59091 0 
29.9765 10 0 
29.9804 10.0196 0 
29.9667 10.0098 0 
29.9591 10 0 
29.9686 10.0196 0 
29.9659 10.0341 0 
29.9569 10.0196 0 
29.9418 10 0 
29.9395 10.0196 0 
29.9515 10.0485 0 
29.932 10.0098 0 
29.9424 10.0341 0 
29.8241 9.79545 0 
29.7181 9.59091 0 
29.9166 10 0 
29.9397 10.0485 0 
29.9222 10.0196 0 
29.9279 10.0485 0 
29.9305 10.0695 0 
29.8914 10 0 
29.9077 10.0341 0 
27.9 4 0 
29.897 10.0196 0 
29.9106 10.0485 0 
29.8817 10.0098 0 
29.907 10.0695 0 
29.8933 10.0485 0 
29.9095 10.0905 0 
29.8719 10.0196 0 
27.6 2 0 
29.8556 10 0 
29.8978 10.0905 0 
29.6531 9.59091 0 
29.3437 8.90909 0 
27.5 0 0 
29.8681 10.0485 0 
29.886 10.0905 0 
29.8574 10.0341 0 
29.4839 9.25 0 
29.8723 10.0695 0 
29.7289 9.79545 0 
29.836 10.0196 0 
29.8687 10.0905 0 
29.8197 10 0 
29.8797 10.1203 0 
29.843 10.0485 0 
29.8513 10.0905 0 
29.81 10.0098 0 
29.8561 10.1203 0 
29.8002 10.0196 0 
29.8221 10.0695 0 
29.8072 10.0485 0 
29.8262 10.0905 0 
29.5782 9.59091 0 
29.8498 10.1502 0 
29.7695 10 0 
29.7858 10.0341 0 
29.838 10.1502 0 
29.8215 10.1203 0 
29.8011 10.0905 0 
29.8262 10.1502 0 
29.7714 10.0485 0 
28.875 8 0 
29.75 10.0196 0 
29.8089 10.1502 0 
29.7654 10.0905 0 
29.7193 10 0 
29.7916 10.1502 0 
29.7505 10.0695 0 
29.8079 10.1921 0 
29.7713 10.1203 0 
29.7096 10.0098 0 
29.6047 9.79545 0 
29.503 9.59091 0 
29.7213 10.0485 0 
29.7665 10.1502 0 
29.6999 10.0196 0 
29.7844 10.1921 0 
29.7296 10.0905 0 
29.6856 10.0341 0 
29.7414 10.1502 0 
29.7497 10.1921 0 
29.6503 10 0 
29.7661 10.2339 0 
29.6712 10.0485 0 
29.6999 10.1203 0 
29.7543 10.2339 0 
29.6796 10.0905 0 
29.7057 10.1502 0 
29.7425 10.2339 0 
29.1235 8.90909 0 
29.6309 10.0196 0 
29.6504 10.0695 0 
29.4146 9.59091 0 
29.7252 10.2339 0 
29.6996 10.1921 0 
29.6701 10.1502 0 
29.7079 10.2339 0 
29.6296 10.0905 0 
29.5813 10 0 
29.6023 10.0485 0 
29.5716 10.0098 0 
29.6828 10.2339 0 
29.7086 10.2914 0 
29.2101 9.25 0 
29.562 10.0196 0 
29.6201 10.1502 0 
29.6578 10.2339 0 
29.4428 9.79545 0 
29.5999 10.1203 0 
29.6849 10.2914 0 
29.6283 10.1921 0 
29.5477 10.0341 0 
29.3259 9.59091 0 
29.5608 10.0905 0 
29.5335 10.0485 0 
29.6221 10.2339 0 
29.6503 10.2914 0 
29.5702 10.1502 0 
29.4881 10 0 
29.5128 10.0695 0 
29.6511 10.3489 0 
29.5866 10.2339 0 
29.6392 10.3489 0 
29.4689 10.0196 0 
29.6002 10.2914 0 
29.6273 10.3489 0 
29.4921 10.0905 0 
29.61 10.3489 0 
29.5286 10.1921 0 
29.5016 10.1502 0 
29.5368 10.2339 0 
29.5926 10.3489 0 
29.4405 10.0485 0 
29.2199 9.59091 0 
29.4626 10.1203 0 
29.3949 10 0 
28.9 8.90909 0 
29.5676 10.3489 0 
29.5291 10.2914 0 
29.3853 10.0098 0 
28.6923 8.45455 0 
29.487 10.2339 0 
29.5426 10.3489 0 
29.3758 10.0196 0 
29.5734 10.4266 0 
29.4331 10.1502 0 
29.3993 10.0905 0 
28.5 8 0 
29.3617 10.0341 0 
29.5496 10.4266 0 
29.5071 10.3489 0 
29.2327 9.79545 0 
29.3475 10.0485 0 
29.1136 9.59091 0 
29.4187 10.2339 0 
29.5148 10.4266 0 
29.4716 10.3489 0 
29.3918 10.1921 0 
29.3271 10.0695 0 
29.4298 10.2914 0 
29.2714 10 0 
29.3406 10.1502 0 
28.9208 9.25 0 
29.3066 10.0905 0 
29.4648 10.4266 0 
29.422 10.3489 0 
29.4958 10.5042 0 
29.2524 10.0196 0 
27.75 6 0 
29.3504 10.2339 0 
29.4837 10.5042 0 
29.4718 10.5042 0 
29.2774 10.1203 0 
29.4543 10.5042 0 
29.3724 10.3489 0 
29.2244 10.0485 0 
29.4369 10.5042 0 
29.3938 10.4266 0 
28.9853 9.59091 0 
29.2481 10.1502 0 
28.6766 8.90909 0 
29.4119 10.5042 0 
29.2934 10.2914 0 
27.225 4 0 
29.148 10 0 
29.2582 10.2339 0 
29.1837 10.0905 0 
29.3869 10.5042 0 
29.1385 10.0098 0 
29.3044 10.3489 0 
29.1291 10.0196 0 
29.2072 10.1921 0 
29.3514 10.5042 0 
29.1152 10.0341 0 
29.3929 10.6071 0 
29.2949 10.4266 0 
29.1013 10.0485 0 
29.3686 10.6071 0 
29.316 10.5042 0 
29.2364 10.3489 0 
28.9623 9.79545 0 
29.1257 10.1502 0 
29.1662 10.2339 0 
29.0811 10.0695 0 
28.8566 9.59091 0 
29.3336 10.6071 0 
29.2666 10.5042 0 
29.0609 10.0905 0 
28.9875 10 0 
29.2835 10.6071 0 
29.1448 10.3489 0 
29.0321 10.1203 0 
29.2173 10.5042 0 
29.1098 10.2914 0 
28.125 8 0 
28.9688 10.0196 0 
29.1594 10.4266 0 
28.611 9.25 0 
29.29 10.71 0 
28.4486 8.90909 0 
29.0443 10.2339 0 
29.0033 10.1502 0 
29.2777 10.71 0 
28.9413 10.0485 0 
29.2128 10.6071 0 
29.2655 10.71 0 
29.1497 10.5042 0 
29.2478 10.71 0 
28.7003 9.59091 0 
29.0533 10.3489 0 
29.2303 10.71 0 
28.9629 10.1921 0 
28.9013 10.0905 0 
29.2051 10.71 0 
29.0822 10.5042 0 
29.1801 10.71 0 
28.827 10 0 
29.1144 10.6071 0 
28.8177 10.0098 0 
28.9225 10.2339 0 
28.8085 10.0196 0 
29.1447 10.71 0 
28.7949 10.0341 0 
28.8443 10.1502 0 
28.977 10.4266 0 
28.9322 10.3489 0 
29.1094 10.71 0 
28.7813 10.0485 0 
28.9912 10.5042 0 
29.1562 10.8438 0 
28.5436 9.59091 0 
28.7615 10.0695 0 
28.8669 10.2914 0 
29.1313 10.8438 0 
28.6184 9.79545 0 
29.0602 10.71 0 
28.2207 8.90909 0 
28.7418 10.0905 0 
28.0378 8.45455 0 
28.9798 10.6071 0 
29.0958 10.8438 0 
29.0112 10.71 0 
28.9005 10.5042 0 
28.7136 10.1203 0 
28.7644 10.2339 0 
28.8113 10.3489 0 
29.0454 10.8438 0 
28.6223 10 0 
28.6854 10.1502 0 
28.2746 9.25 0 
28.9441 10.71 0 
28.6042 10.0196 0 
27.75 8 0 
28.9747 10.8438 0 
28.6459 10.1921 0 
28.5773 10.0485 0 
29.0225 10.9775 0 
28.3532 9.59091 0 
28.7804 10.5042 0 
28.736 10.4266 0 
28.8772 10.71 0 
29.0097 10.9775 0 
28.9971 10.9775 0 
28.799 10.6071 0 
28.9791 10.9775 0 
28.5384 10.0905 0 
28.6064 10.2339 0 
28.6543 10.3489 0 
28.9611 10.9775 0 
28.8769 10.8438 0 
27.9867 8.90909 0 
26.25 0 0 
28.9358 10.9775 0 
28.7871 10.71 0 
28.9106 10.9775 0 
28.6607 10.5042 0 
28.4177 10 0 
26.55 4 0 
28.552 10.2914 0 
28.483 10.1502 0 
28.4087 10.0098 0 
28.8751 10.9775 0 
28.3998 10.0196 0 
28.3866 10.0341 0 
28.8399 10.9775 0 
28.6974 10.71 0 
28.3735 10.0485 0 
28.1625 9.59091 0 
28.7436 10.8438 0 
28.4976 10.3489 0 
28.3543 10.0695 0 
28.791 10.9775 0 
28.4052 10.2339 0 
28.3352 10.0905 0 
28.8519 11.1481 0 
28.1869 9.79545 0 
28.5607 10.6071 0 
28.5053 10.5042 0 
28.7423 10.9775 0 
28.8258 11.1481 0 
28.308 10.1203 0 
28.5787 10.71 0 
27.904 9.25 0 
28.7893 11.1481 0 
28.424 10.4266 0 
27.7528 8.90909 0 
28.2807 10.1502 0 
28.6758 10.9775 0 
27.375 8 0 
28.7383 11.1481 0 
28.1619 10 0 
28.5649 10.8438 0 
28.2425 10.1921 0 
28.6096 10.9775 0 
28.1444 10.0196 0 
28.298 10.3489 0 
28.4605 10.71 0 
26.7 6 0 
27.9315 9.59091 0 
28.3503 10.5042 0 
28.6676 11.1481 0 
28.1187 10.0485 0 
28.2042 10.2339 0 
28.5207 10.9775 0 
28.0813 10.0905 0 
28.6814 11.3186 0 
27.3818 8.45455 0 
28.6679 11.3186 0 
28.1516 10.2914 0 
28.5703 11.1481 0 
28.6544 11.3186 0 
28.6358 11.3186 0 
27.5109 8.90909 0 
28.3072 10.71 0 
28.6173 11.3186 0 
28.2524 10.6071 0 
28.4322 10.9775 0 
28.028 10.1502 0 
28.5915 11.3186 0 
28.0989 10.3489 0 
28.33 10.8438 0 
28.5658 11.3186 0 
28.153 10.5042 0 
27.9061 10 0 
27.8975 10.0098 0 
28.5303 11.3186 0 
28.4384 11.1481 0 
27.7002 9.59091 0 
27.889 10.0196 0 
27.8765 10.0341 0 
28.4949 11.3186 0 
28.3154 10.9775 0 
27.9532 10.2339 0 
27.8639 10.0485 0 
28.0276 10.4266 0 
28.1544 10.71 0 
27.8457 10.0695 0 
27.4909 9.25 0 
28.4463 11.3186 0 
27 8 0 
27.8275 10.0905 0 
28.3979 11.3186 0 
27.8015 10.1203 0 
27.6542 9.79545 0 
25.675 2 0 
28.1991 10.9775 0 
27.2691 8.90909 0 
27.9563 10.5042 0 
28.4682 11.5318 0 
28.2625 11.1481 0 
27.7755 10.1502 0 
28.3322 11.3186 0 
27.8502 10.3489 0 
28.4401 11.5318 0 
25.875 4 0 
27.7391 10.1921 0 
28.4019 11.5318 0 
28.0268 10.8438 0 
28.2668 11.3186 0 
27.9602 10.71 0 
28.3498 11.5318 0 
27.4223 9.59091 0 
27.7026 10.2339 0 
27.5927 10 0 
28.0486 10.9775 0 
27.8616 10.6071 0 
27.5762 10.0196 0 
28.1794 11.3186 0 
28.2786 11.5318 0 
27.5519 10.0485 0 
27.6524 10.2914 0 
28.0319 11.1481 0 
27.7108 10.5042 0 
27.5167 10.0905 0 
27.0169 8.90909 0 
28.0924 11.3186 0 
27.6021 10.3489 0 
27.8988 10.9775 0 
28.1818 11.5318 0 
27.7667 10.71 0 
26.625 8 0 
28.255 11.745 0 
27.4664 10.1502 0 
28.2402 11.745 0 
28.2256 11.745 0 
28.2059 11.745 0 
27.978 11.3186 0 
26.7234 8.45455 0 
27.0259 9.25 0 
27.5342 10.4266 0 
28.1863 11.745 0 
27.1442 9.59091 0 
28.0516 11.5318 0 
28.1598 11.745 0 
27.3959 10.2339 0 
28.1334 11.745 0 
27.2793 10 0 
27.2714 10.0098 0 
27.2635 10.0196 0 
27.7086 10.9775 0 
27.6431 10.8438 0 
28.0975 11.745 0 
27.8643 11.3186 0 
27.4661 10.5042 0 
27.2518 10.0341 0 
27.2401 10.0485 0 
28.0617 11.745 0 
26.7648 8.90909 0 
27.5255 10.71 0 
27.7353 11.1481 0 
27.2231 10.0695 0 
28.0133 11.745 0 
27.2061 10.0905 0 
27.8791 11.5318 0 
27.2986 10.3489 0 
27.1818 10.1203 0 
27.9651 11.745 0 
27.3758 10.6071 0 
27.0077 9.79545 0 
27.7174 11.3186 0 
27.1576 10.1502 0 
25 0 0 
27.5193 10.9775 0 
27.9003 11.745 0 
27.1236 10.1921 0 
26.25 8 0 
27.9939 12.0061 0 
25.65 6 0 
27.8359 11.745 0 
26.8136 9.59091 0 
27.0896 10.2339 0 
27.9626 12.0061 0 
27.2853 10.71 0 
25.2 4 0 
27.5713 11.3186 0 
27.9218 12.0061 0 
26.4998 8.90909 0 
27.167 10.5042 0 
27.6541 11.5318 0 
27.0427 10.2914 0 
27.7503 11.745 0 
26.9033 10 0 
27.8677 12.0061 0 
26.8882 10.0196 0 
26.8659 10.0485 0 
26.9958 10.3489 0 
27.2836 10.9775 0 
27.6652 11.745 0 
27.3609 11.1481 0 
27.7955 12.0061 0 
26.499 9.25 0 
[...]
POINT_DATA 1909
SCALARS phi float 1
LOOKUP_TABLE default
VECTORS Displacement float
0 0 0
0 0 0
0 -0.00598753 0
0 0 0
0 -0.00827709 0
0 0 0
0 -0.00717147 0
0 0 0
0 0 0
0 -0.00301411 0
0.0169848 -0.00518754 0
0 0 0
0 0.00393504 0
0.0329361 -0.00308679 0
0 0 0
0.0230565 -0.00507855 0
0 0.0128435 0
0 0 0
0.0437107 0.0073 0
0.0297329 -0.00515085 0
0 0 0
0.0494529 0.0238085 0
0 0 0
0.0368752 -0.00553031 0
0 0 0
0.0698689 -0.00339971 0
0.0440893 -0.00622206 0
0.082303 0.00085367 0
0 0 0
0.0749595 -0.00375409 0
0.0912017 0.0065749 0
0.0969375 0.0134113 0
0.0799641 -0.00419831 0
0.100389 0.0206163 0
0 0 0
0.0849443 -0.0049099 0
0.103117 0.0281904 0
0.0509161 -0.00718293 0
0.0897875 -0.00572627 0
0.105697 0.0371711 0
0 0 0
0.0944009 -0.00671431 0
0.120606 0.00349795 0
0.0987851 -0.00780314 0
0.132102 0.0157851 0
0.0569255 -0.0083576 0
0 0 0
0.130787 -0.000495123 0
0.137059 0.0325296 0
0.102848 -0.0090164 0
0.138072 0.0564928 0
0.106588 -0.01032 0
0 0 0
0.139396 -0.00467302 0
0.109962 -0.0117148 0
0.0617603 -0.00970077 0
0.14667 -0.00921936 0
0.112943 -0.0131936 0
0 0 0
0.171644 0.00174938 0
0.17661 0.00565011 0
0.115541 -0.0147362 0
0.175223 -0.00133433 0
0.181476 0.0106013 0
0.152575 -0.0141131 0
0.185154 0.0176399 0
0.18408 0.0075397 0
0.18896 0.0276623 0
0.189759 0.0253053 0
0.17838 -0.00449906 0
0.188606 0.0122672 0
0.189888 0.034576 0
0.190531 0.0233339 0
0.186423 0.00480702 0
0.190659 0.0321951 0
0.183246 -0.000871575 0
0.19129 0.0213482 0
0.190188 0.0424486 0
0.191678 0.0294295 0
0.19054 0.0425878 0
0.285765 0.0769553 0
0.191994 0.0195934 0
0.190942 0.0425474 0
0.358169 0.101968 0
0.28388 0.0758724 0
0.191565 0.0424364 0
0.356257 0.100874 0
0.36213 0.101519 0
0.354056 0.0995452 0
0.192242 0.0421819 0
0.350293 0.097674 0
0.362246 0.100417 0
0.280484 0.0736792 0
0.36038 0.099307 0
0.193057 0.0264277 0
0.19271 0.0178154 0
0.193244 0.0414833 0
0.362077 0.0994474 0
0.346428 0.0956276 0
0.361937 0.0985653 0
0.362598 0.0991777 0
0.19428 0.0407348 0
0.356353 0.0963032 0
0.1177 -0.0163669 0
0.340907 0.0925787 0
0.361493 0.0974542 0
0.275761 0.0697335 0
0.36237 0.0975515 0
0.360889 0.0962467 0
0.361999 0.0978359 0
0.335537 0.0895126 0
0.0651329 -0.0111844 0
0.195694 0.0392183 0
0.361937 0.0970484 0
0.193365 0.016181 0
0.188706 0.00226823 0
0 0 0
0.359566 0.0943747 0
0.361855 0.0962452 0
0.349499 0.0915151 0
0.191691 0.00812541 0
0.361896 0.0951143 0
0.194865 0.0232253 0
0.328473 0.0849682 0
0.361708 0.0949938 0
0.197078 0.0377649 0
0.361228 0.0960065 0
0.357696 0.0922978 0
0.361547 0.0936905 0
0.269739 0.0635454 0
0.361083 0.0942938 0
0.32163 0.0805838 0
0.360424 0.0911315 0
0.354526 0.0890104 0
0.361252 0.0917241 0
0.194063 0.0144643 0
0.360226 0.0939888 0
0.198835 0.0354537 0
0.33919 0.0839103 0
0.360144 0.0930919 0
0.360832 0.091617 0
0.36091 0.0897103 0
0.36006 0.0921747 0
0.350745 0.0856109 0
0.181395 -0.00768146 0
0.312766 0.0744849 0
0.359924 0.0908019 0
0.360156 0.0868377 0
0.200447 0.0332935 0
0.359782 0.0894125 0
0.35652 0.0849989 0
0.358796 0.0910153 0
0.3604 0.0875974 0
0.261998 0.0550492 0
0.197089 0.019794 0
0.19471 0.012836 0
0.345011 0.0806748 0
0.359565 0.0873823 0
0.304284 0.0687587 0
0.358635 0.0891209 0
0.35909 0.0839392 0
0.324511 0.0732144 0
0.359343 0.0853616 0
0.35838 0.0863107 0
0.202374 0.0304306 0
0.35734 0.0879304 0
0.338779 0.0758098 0
0.35947 0.0818939 0
0.357247 0.0869611 0
0.356987 0.079922 0
0.359017 0.0825115 0
0.357154 0.0859968 0
0.190812 -0.000222457 0
0.293443 0.0613512 0
0.348473 0.0762599 0
0.195457 0.011088 0
0.357016 0.0845851 0
0.357987 0.0822936 0
0.358696 0.0797423 0
0.356877 0.0831887 0
0.354193 0.0759231 0
0.204013 0.0277473 0
0.329882 0.0692644 0
0.252065 0.04463 0
0.35668 0.0811946 0
0.355385 0.0836514 0
0.194501 0.00423961 0
0.283326 0.0545353 0
0.358113 0.0760126 0
0.356485 0.0792431 0
0.199648 0.0160795 0
0.356869 0.0742826 0
0.355212 0.0817429 0
0.357425 0.0768315 0
0.304697 0.0596818 0
0.196183 0.00940947 0
0.349392 0.0705883 0
0.320691 0.0629654 0
0.356209 0.0765412 0
0.354955 0.0790049 0
0.357383 0.0724473 0
0.20588 0.0246147 0
0.334382 0.0646911 0
0.353477 0.0794494 0
0.355936 0.073935 0
0.353389 0.0785109 0
0.270868 0.0463486 0
0.354585 0.0751999 0
0.353301 0.077586 0
0.343715 0.0653339 0
0.353173 0.076249 0
0.356596 0.0697856 0
0.355789 0.0678205 0
0.355567 0.0704325 0
0.353046 0.0749392 0
0.308107 0.055027 0
0.197063 0.00755557 0
0.350221 0.0645791 0
0.207361 0.0216471 0
0.192828 -0.00270714 0
0.352866 0.0730861 0
0.354073 0.0701101 0
0.240078 0.0330251 0
0.188635 -0.00723593 0
0.355218 0.0671157 0
0.352689 0.0712854 0
0.259924 0.0390675 0
0.35109 0.0740004 0
0.353532 0.0633478 0
0.334866 0.0585875 0
0.184038 -0.0109701 0
0.279716 0.0440698 0
0.350927 0.072227 0
0.352444 0.0688031 0
0.202388 0.0119337 0
0.295575 0.047507 0
0.197968 0.00578183 0
0.354692 0.0627911 0
0.350692 0.069721 0
0.352207 0.0664152 0
0.354597 0.0610766 0
0.312298 0.0503169 0
0.353403 0.0635924 0
0.208986 0.0183521 0
0.349199 0.0576732 0
0.197136 0.000339838 0
0.32502 0.0519514 0
0.350358 0.0662715 0
0.351882 0.0632175 0
0.348734 0.0688097 0
0.247598 0.0309211 0
0.157036 -0.0192843 0
0.354093 0.0587408 0
0.34866 0.0679607 0
0.348587 0.0671263 0
0.336304 0.0524126 0
0.348481 0.0659277 0
0.351568 0.060169 0
0.279596 0.0385647 0
0.348377 0.0647549 0
0.349898 0.0616732 0
0.199062 0.00375043 0
0.343671 0.0520905 0
0.194698 -0.00519902 0
0.348228 0.0631022 0
0.352562 0.055561 0
0.11946 -0.0180315 0
0.210233 0.0152063 0
0.352726 0.0536192 0
0.310767 0.0437622 0
0.34808 0.061495 0
0.227871 0.0212214 0
0.351152 0.056185 0
0.238094 0.0241526 0
0.348582 0.050568 0
0.347871 0.0592786 0
0.25237 0.0277971 0
0.345905 0.0623847 0
0.349284 0.0557427 0
0.265 0.0305439 0
0.345768 0.0608025 0
0.347665 0.0571375 0
0.350759 0.0524254 0
0.205103 0.0070681 0
0.334362 0.0451456 0
0.350663 0.0487359 0
0.281619 0.0336744 0
0.200183 0.00179018 0
0.345571 0.0585825 0
0.347378 0.0542539 0
0.295764 0.0358401 0
0.211546 0.0116215 0
0.34529 0.0555284 0
0.350224 0.0476178 0
0.311318 0.0374762 0
0.347097 0.051489 0
0.350774 0.0459309 0
0.186446 -0.0142454 0
0.228922 0.0169703 0
0.348499 0.0483501 0
0.1996 -0.00375481 0
0.343097 0.0563339 0
0.196417 -0.00777094 0
0.34637 0.0427198 0
0.323247 0.038212 0
0.343039 0.0555814 0
0.249009 0.0216049 0
0.344899 0.0514332 0
0.342982 0.054841 0
0.346713 0.0478623 0
0.3429 0.0537849 0
0.201523 -0.000506175 0
0.349642 0.0431441 0
0.342818 0.0527489 0
0.333841 0.037841 0
0.276716 0.0265996 0
0.342699 0.0512931 0
0.34634 0.0444149 0
0.342581 0.0498714 0
0.212576 0.00820063 0
0.344364 0.0461069 0
0.218902 0.0102367 0
0.340535 0.0368709 0
0.223255 0.0113987 0
0.34241 0.0479102 0
0.230035 0.0130397 0
0.306652 0.0299846 0
0.347564 0.0394719 0
0.348305 0.0376248 0
0.34224 0.0460074 0
0.237172 0.0145788 0
0.345857 0.0400199 0
0.339707 0.0490105 0
0.202845 -0.00275045 0
0.248538 0.0168197 0
0.344751 0.0347706 0
0.3396 0.0475973 0
0.207616 0.00117732 0
0.342 0.0434411 0
0.198003 -0.0103375 0
0.259689 0.0186444 0
0.192926 -0.0137313 0
0.343655 0.03942 0
0.339446 0.0456324 0
0.341761 0.0409733 0
0.345408 0.0359017 0
0.275028 0.0207185 0
0.330076 0.0299376 0
0.346212 0.0324795 0
0.339227 0.0429391 0
0.213589 0.00414639 0
0.288762 0.0220676 0
0.201919 -0.00813411 0
0.341433 0.0377316 0
0.218948 0.00554861 0
0.188474 -0.0175816 0
0.338921 0.0393324 0
0.304497 0.022893 0
0.227193 0.00717824 0
0.336422 0.0421296 0
0.204379 -0.00541548 0
0.344845 0.0308059 0
0.345766 0.0292611 0
0.341111 0.0346521 0
0.336376 0.0414531 0
0.336329 0.0407877 0
0.342774 0.0313782 0
0.336263 0.0398523 0
0.242706 0.00977807 0
0.316856 0.0229889 0
0.341626 0.0264097 0
0.336197 0.0389348 0
0.338504 0.0346475 0
0.199444 -0.0129856 0
0 0 0
0.336103 0.037658 0
0.340691 0.0307337 0
0.336009 0.036412 0
0.344249 0.0261538 0
0.214418 0.000271309 0
0.120756 -0.019803 0
0.328041 0.0220276 0
0.267431 0.0129829 0
0.215756 0.000572699 0
0.335876 0.0347048 0
0.217092 0.000838941 0
0.219163 0.00121665 0
0.335744 0.0330512 0
0.340295 0.0270686 0
0.221688 0.0016793 0
0.205825 -0.00804678 0
0.337957 0.0287907 0
0.335086 0.0206375 0
0.226205 0.00248082 0
0.335562 0.030833 0
0.297499 0.0151361 0
0.231555 0.00336484 0
0.332478 0.0339878 0
0.209904 -0.00588795 0
0.341836 0.0222038 0
0.342888 0.0206492 0
0.335386 0.0287064 0
0.332402 0.032723 0
0.240418 0.00467872 0
0.339828 0.0225758 0
0.204135 -0.012841 0
0.332294 0.031005 0
0.339406 0.0181937 0
0.200737 -0.0156305 0
0.249986 0.00582494 0
0.335152 0.0259283 0
0.190228 -0.0209078 0
0.332144 0.0286901 0
0.215118 -0.00436143 0
0.337288 0.0217958 0
0.263948 0.00712386 0
0.33493 0.0232994 0
0.216427 -0.00425224 0
0.322902 0.0141978 0
0.339443 0.0184473 0
0.159999 -0.0246766 0
0.207432 -0.0111859 0
0.340759 0.0156617 0
0.331939 0.0256306 0
0.218791 -0.00407407 0
0.277316 0.00784278 0
0.33465 0.0199655 0
0.223959 -0.00358004 0
0.328603 0.026446 0
0.196161 -0.0202971 0
0.328572 0.0258507 0
0.293555 0.00802876 0
0.331668 0.0216998 0
0.328542 0.0252667 0
0.328501 0.0244648 0
0.201883 -0.0183678 0
0.338949 0.0135061 0
0.328461 0.0236807 0
0.340082 0.0122571 0
0.334396 0.016853 0
0.23511 -0.00253006 0
0.328405 0.0226082 0
0.306949 0.00756135 0
0.336542 0.0138169 0
0.328351 0.0215648 0
0.335749 0.00989202 0
0.21572 -0.00879645 0
0.216079 -0.00883211 0
0.328278 0.0201533 0
0.331328 0.0168187 0
0.208871 -0.0143009 0
0.21644 -0.00887034 0
0.217036 -0.00891156 0
0.328207 0.0187894 0
0.334086 0.0130054 0
0.255843 -0.00101268 0
0.217683 -0.00894615 0
0.319656 0.00603817 0
0.338361 0.00896004 0
0.218883 -0.00893678 0
0.206225 -0.0179542 0
0.328113 0.0169744 0
0.191614 -0.0242523 0
0.220328 -0.00888738 0
0.328025 0.0152343 0
0.223045 -0.00870751 0
0.212178 -0.014059 0
0.0667985 -0.0127868 0
0.333798 0.0093985 0
0.202874 -0.0210928 0
0.327921 0.00420104 0
0.324304 0.0179838 0
0.330922 0.0109558 0
0.226546 -0.00842133 0
0.32791 0.0129639 0
0.285247 -0.000161852 0
0.324262 0.0168846 0
0.121635 -0.0215696 0
0.232755 -0.0079256 0
0.324202 0.0154389 0
0.335717 0.00478519 0
0.327804 0.0107998 0
0.336958 0.00346872 0
0.324122 0.0135335 0
0.210346 -0.0180119 0
0.240241 -0.0074291 0
0.216258 -0.0139588 0
0.333461 0.00496447 0
0.333046 0.00127826 0
0.216777 -0.0141036 0
0.327667 0.00802807 0
0.324016 0.0110437 0
0.217591 -0.0143181 0
0.251957 -0.00691814 0
0.330437 0.00399168 0
0.31339 -0.00210179 0
0.219017 -0.0146059 0
0.203748 -0.0239128 0
0.32753 0.0053707 0
0.264245 -0.00685373 0
0.333075 0.000714618 0
0.323879 0.00784056 0
0.334635 -0.00169279 0
0.192722 -0.0276112 0
0.319866 0.0102265 0
0.222019 -0.0149182 0
0.319858 0.00971343 0
0.319849 0.00920945 0
0.31984 0.00853893 0
0.327356 0.00199872 0
0.198352 -0.026903 0
0.20805 -0.0236121 0
0.280238 -0.00742418 0
0.319831 0.00788132 0
0.211578 -0.0216967 0
0.323704 0.00378553 0
0.319819 0.00699964 0
0.229136 -0.0151468 0
0.319807 0.00613676 0
0.21676 -0.0189277 0
0.216954 -0.0190184 0
0.21716 -0.0191063 0
0.332457 -0.00450311 0
0.333745 -0.00561478 0
0.31979 0.00498183 0
0.327156 -0.00127683 0
0.294387 -0.00867221 0
0.217453 -0.0192419 0
0.217753 -0.0193773 0
0.319773 0.0038534 0
0.204458 -0.0267204 0
0.328603 -0.00767095 0
0.329748 -0.00439019 0
0.218211 -0.0195685 0
0.319748 0.00235416 0
0.218667 -0.0197649 0
0.323477 -0.00131737 0
0.244626 -0.0153795 0
0.219404 -0.0200238 0
0.319721 0.000888243 0
0.308697 -0.0110898 0
0.214519 -0.0232851 0
0.326865 -0.00540886 0
0.220204 -0.0202805 0
0 0 0
0.331709 -0.00948926 0
0.319684 -0.00104387 0
0.221716 -0.0205663 0
0.19349 -0.0309695 0
0.314989 0.00169484 0
0.161445 -0.0302476 0
0.31964 -0.00294033 0
0.212674 -0.0260408 0
0.223642 -0.0208099 0
0.314978 0.000697486 0
0.318527 -0.0137308 0
0.122033 -0.0234753 0
0.32653 -0.0094248 0
0.314961 -0.00057909 0
0.205048 -0.0296521 0
0.270849 -0.016378 0
0.323131 -0.0077235 0
0.227362 -0.0210477 0
0.319561 -0.00541706 0
0.217576 -0.0245085 0
0.314937 -0.00223768 0
0.217818 -0.0247254 0
0.218245 -0.0250286 0
0.232327 -0.0212371 0
0.329917 -0.0155281 0
0.319468 -0.00785275 0
0.328613 -0.0143761 0
0.314904 -0.00440696 0
0.209416 -0.0299437 0
0.218912 -0.0254652 0
0.324929 -0.0175212 0
0.326035 -0.0143797 0
0.240779 -0.0216033 0
0.314853 -0.00724728 0
0.319325 -0.0109957 0
0.219923 -0.026103 0
0.300653 -0.0199155 0
0.205463 -0.0325746 0
0.199579 -0.0335063 0
0.21344 -0.0303452 0
0.322546 -0.0156301 0
0.250786 -0.0222724 0
0.193993 -0.0343349 0
0.309996 -0.00642246 0
0.221636 -0.0270189 0
0.319158 -0.0140753 0
0.31 -0.00692395 0
0.314766 -0.0109489 0
0.327021 -0.02119 0
0.310002 -0.00741998 0
0.325468 -0.019169 0
0.310006 -0.00805401 0
0.310009 -0.00868156 0
0.310011 -0.00950028 0
0.218143 -0.0299506 0
0.264935 -0.0237452 0
0.218281 -0.0300593 0
0.218417 -0.0301687 0
0.310012 -0.010311 0
0.218605 -0.0303324 0
0.225478 -0.0282889 0
0.318906 -0.0179701 0
0.218793 -0.0304973 0
0.310009 -0.0113798 0
0.219057 -0.0307392 0
0.314609 -0.0157214 0
0.310003 -0.0124383 0
0.21932 -0.0309836 0
0.219688 -0.0313357 0
0.205732 -0.0356549 0
0.27876 -0.0259668 0
0.30999 -0.0138365 0
0.325992 -0.0258531 0
0.324597 -0.024951 0
0.220055 -0.0316919 0
0.318614 -0.0217653 0
0.309971 -0.0152206 0
0.319064 -0.0272551 0
0.216125 -0.0337686 0
0.22057 -0.0321943 0
0.321543 -0.025113 0
0.235083 -0.0301329 0
0.30994 -0.0170415 0
0.213967 -0.035322 0
0.221076 -0.0327061 0
0.19419 -0.0376927 0
0.314325 -0.0217539 0
0.121997 -0.0253184 0
0.309901 -0.0188399 0
0.29401 -0.0295609 0
0.210094 -0.0370488 0
0.221883 -0.0333869 0
0.318183 -0.0264547 0
0.304165 -0.0157615 0
0.323561 -0.0304771 0
0.309837 -0.0211823 0
0.30417 -0.0168142 0
0.222789 -0.0340658 0
0.205818 -0.0387248 0
0.304173 -0.0181179 0
0.218625 -0.036126 0
0.218834 -0.0363475 0
0.309761 -0.0234871 0
0.30544 -0.0333776 0
0.255088 -0.0332492 0
0.304171 -0.0197714 0
0.219148 -0.0366771 0
0.224655 -0.0348872 0
0.317686 -0.0310042 0
0.219603 -0.0371613 0
0.19989 -0.0401173 0
0.31382 -0.0291972 0
0.30416 -0.0218985 0
0.309641 -0.0264436 0
0.227137 -0.0357053 0
0.220243 -0.0378643 0
0.161374 -0.0359696 0
0.321093 -0.0369791 0
0.214076 -0.0402491 0
0.30413 -0.0246479 0
0.319919 -0.0361807 0
0.194137 -0.0410569 0
0.309498 -0.029342 0
0.31378 -0.038387 0
0.22111 -0.0388775 0
0.231991 -0.0368191 0
0.205725 -0.0419818 0
0.316973 -0.0364882 0
0.304064 -0.0281881 0
0 0 0
0.309279 -0.0329927 0
0.28373 -0.0388794 0
0.298248 -0.0249501 0
0.222313 -0.0403159 0
0.238518 -0.0381454 0
0.298252 -0.0255122 0
0.298255 -0.0260703 0
0.0665452 -0.0144619 0
0.218522 -0.0422592 0
0.298258 -0.0267517 0
0.312957 -0.0381465 0
0.218631 -0.0423773 0
0.21874 -0.0424957 0
0.29826 -0.0274281 0
0.317018 -0.0429435 0
0.218892 -0.0426712 0
0.303929 -0.0326983 0
0.309023 -0.0365571 0
0.298261 -0.0282754 0
0.219043 -0.0428477 0
0.316165 -0.0417704 0
0.219256 -0.0431055 0
0.29826 -0.0291159 0
0.219467 -0.0433652 0
0.248911 -0.0404159 0
0.298257 -0.0301875 0
0.22433 -0.0423619 0
0.219759 -0.0437396 0
0.209838 -0.0449857 0
0.121459 -0.0273381 0
0.298251 -0.0312494 0
0.205443 -0.0452238 0
0.220046 -0.044118 0
0.19381 -0.0444122 0
0.298238 -0.0326163 0
0.220438 -0.0446557 0
0.308646 -0.0409573 0
0.213768 -0.0458565 0
0.216052 -0.0456409 0
0.298222 -0.0339687 0
0.22082 -0.0452006 0
0.303677 -0.0383568 0
0.260683 -0.0435177 0
0.298193 -0.0357123 0
0.316273 -0.0484736 0
0.221329 -0.0459604 0
0.314969 -0.0479935 0
0.199311 -0.04675 0
0.228819 -0.0454735 0
0.30579 -0.0483739 0
0.298157 -0.0374342 0
0.221817 -0.0467333 0
0.30821 -0.0452329 0
0.311517 -0.0485915 0
0.298098 -0.0396428 0
0.222461 -0.0477796 0
0.275019 -0.0483551 0
0.204942 -0.0486767 0
0.291226 -0.0355929 0
0.303228 -0.0453178 0
0.21787 -0.0491292 0
0.298027 -0.0418193 0
0.291232 -0.0368021 0
0.218036 -0.0493637 0
0.223081 -0.0488426 0
0.218284 -0.0497124 0
0.193244 -0.0477671 0
0.291234 -0.038231 0
0.307583 -0.0503888 0
0.313574 -0.0539161 0
0.218639 -0.0502237 0
0.297917 -0.0445823 0
0.29123 -0.0399659 0
0.223925 -0.0502672 0
0.240439 -0.0505513 0
0.219135 -0.0509629 0
0.212976 -0.051388 0
0.287318 -0.053738 0
0.291215 -0.0421153 0
0.297785 -0.0472973 0
0.219807 -0.0520166 0
0.224775 -0.0517397 0
0.306864 -0.0553827 0
0.29118 -0.0448103 0
0.204246 -0.0521073 0
0.302459 -0.0536827 0
0.297587 -0.0506945 0
0.220697 -0.0534999 0
0.120479 -0.0292085 0
0.159804 -0.0417959 0
0.309791 -0.0605374 0
0.226677 -0.0536531 0
0.208355 -0.0537737 0
0.291108 -0.0482026 0
0.309255 -0.0604634 0
0.297826 -0.0605275 0
0.192431 -0.0511038 0
0.297354 -0.0540209 0
0.221842 -0.05557 0
0.305856 -0.0612627 0
0.216633 -0.0558487 0
0.283996 -0.0461078 0
0.216715 -0.0559696 0
0.216796 -0.0560909 0
0.229486 -0.0556603 0
0.197882 -0.0533945 0
0.284 -0.0467613 0
0.263022 -0.0586435 0
0.216914 -0.05627 0
0.290972 -0.0524578 0
0.21703 -0.0564497 0
0.284002 -0.0474112 0
0.217196 -0.0567112 0
0.284004 -0.0481671 0
0.21736 -0.0569741 0
0.297013 -0.0581102 0
0.284005 -0.0489187 0
0.21759 -0.0573512 0
0.284004 -0.0498172 0
0.217817 -0.057731 0
0.203272 -0.0557659 0
0.284001 -0.0507101 0
0.21159 -0.0575364 0
0.303035 -0.0664794 0
0.21813 -0.0582685 0
0.301196 -0.0634903 0
0.283995 -0.0518021 0
0.2232 -0.0584676 0
0.218437 -0.0588117 0
0.235237 -0.0584779 0
0.290728 -0.057743 0
0.283986 -0.0528863 0
0.296619 -0.0620989 0
0.304718 -0.0669297 0
0.213642 -0.0587244 0
0 0 0
0.218844 -0.0595714 0
0.283969 -0.0542338 0
0.19139 -0.0544288 0
0.219242 -0.0603427 0
0.283949 -0.0555702 0
0.283915 -0.0572454 0
0.219755 -0.0614097 0
0.24295 -0.0620211 0
0.296059 -0.0669086 0
0.283875 -0.0589044 0
0.290304 -0.064209 0
0.220239 -0.0625031 0
0.225059 -0.062549 0
0.303674 -0.0732568 0
0.202103 -0.0593916 0
0.283812 -0.0609874 0
0.303115 -0.0734837 0
0.287252 -0.0705197 0
0.118968 -0.0312772 0
0.220827 -0.0639984 0
0.214629 -0.0632208 0
0.283737 -0.0630461 0
0.214769 -0.0634639 0
0.295421 -0.0715791 0
0.214974 -0.0638248 0
0.275478 -0.0580799 0
0.253909 -0.0674616 0
0.299208 -0.0746862 0
0.215266 -0.064353 0
0.221326 -0.0655382 0
0.283625 -0.0656192 0
0.275483 -0.0595054 0
0.209689 -0.0635637 0
0.19013 -0.0577207 0
0.215669 -0.0651152 0
0.275482 -0.0611162 0
0.195637 -0.0600281 0
0.289596 -0.0719706 0
0.205353 -0.0633517 0
0.283493 -0.0681557 0
0.216207 -0.066201 0
0.221916 -0.067566 0
0.275472 -0.0629855 0
0.301224 -0.0795895 0
0.229712 -0.068825 0
0.294543 -0.0770843 0
0.275448 -0.0652063 0
0.216892 -0.0677296 0
0.200597 -0.0632473 0
0.265229 -0.0740678 0
0.283299 -0.0712955 0
0.222396 -0.0696321 0
0.156766 -0.0476225 0
0.275401 -0.0678917 0
0.283075 -0.0743815 0
0.217708 -0.0698567 0
0.0642539 -0.016104 0
0.293558 -0.0824092 0
0.275316 -0.0711742 0
0.188654 -0.0609855 0
0.22296 -0.0723097 0
0.288452 -0.0810762 0
0.282754 -0.0781487 0
0.295074 -0.0855898 0
0.212005 -0.0703675 0
0.212069 -0.0704912 0
0.212133 -0.0706152 0
0.212227 -0.0707983 0
0.276243 -0.082693 0
0.21232 -0.070982 0
0.218616 -0.0727736 0
0.296168 -0.0869963 0
0.212453 -0.071249 0
0.275166 -0.0752006 0
0.212585 -0.0715173 0
0.21277 -0.0719014 0
0.207054 -0.0700916 0
0.198899 -0.067049 0
0.266647 -0.0699959 0
0.223547 -0.0750512 0
0.21295 -0.0722879 0
0.117045 -0.0330865 0
0.282387 -0.0818379 0
0.26665 -0.0707741 0
0.24251 -0.0788956 0
0.213198 -0.0728327 0
0.266651 -0.0715496 0
0.292188 -0.0885092 0
0.213437 -0.0733821 0
0.266651 -0.072412 0
0.266648 -0.0732712 0
0.213756 -0.0741443 0
0.274912 -0.080123 0
0.266643 -0.0742511 0
0.208502 -0.0726567 0
0.21406 -0.0749149 0
0.266636 -0.075227 0
0.219583 -0.0767061 0
0.281873 -0.0862641 0
0.192601 -0.066616 0
0.266623 -0.076367 0
0.186989 -0.0641984 0
0.283361 -0.0906952 0
0.225319 -0.0786607 0
0.214451 -0.0759676 0
0.266607 -0.0775014 0
0.286668 -0.0914856 0
0.214817 -0.0770329 0
0.266583 -0.0788536 0
0.290657 -0.0944311 0
0 0 0
0.266554 -0.0801978 0
0.274492 -0.0860845 0
0.281289 -0.0905806 0
0.215257 -0.07847 0
0.266511 -0.0818237 0
0.196811 -0.0710631 0
0.228328 -0.0826382 0
0.26646 -0.0834381 0
0.215667 -0.0799269 0
0.200604 -0.0735394 0
0.220471 -0.081962 0
0.266387 -0.0854069 0
0.208489 -0.0779697 0
0.208609 -0.0782168 0
0.208783 -0.0785831 0
0.20391 -0.0764168 0
0.280493 -0.09566 0
0.216134 -0.0818665 0
0.286575 -0.0994953 0
0.209028 -0.0791178 0
0.266302 -0.0873585 0
0.263296 -0.0933363 0