# vtk DataFile Version 3.0
File generated from DClib
ASCII

DATASET UNSTRUCTURED_GRID
POINTS 922 float
50 0 0 
50 1.66667 0 
47.9167 0 0 
50 3.33333 0 
45.8333 0 0 
50 5 0 
43.75 0 0 
50 6.66667 0 
43 2 0 
41.6667 0 0 
50 8.33333 0 
43 4.66667 0 
50 10 0 
43 7.33333 0 
39.7917 2 0 
39.5833 0 0 
43 10 0 
37.5 0 0 
36.5833 2 0 
36 4 0 
35.4167 0 0 
36 5 0 
36 6 0 
34.875 4 0 
36 7 0 
36 8 0 
36 9 0 
33.3333 0 0 
33.75 4 0 
33.375 2 0 
36 10 0 
32.625 4 0 
33 6 0 
33 7.38776 0 
31.25 0 0 
31.5 4 0 
33 8.72989 0 
31.25 6 0 
33 10 0 
30.1667 2 0 
30.375 4 0 
29.1667 0 0 
29.25 4 0 
29.5 6 0 
30 8 0 
30 8.38776 0 
30 8.77551 0 
30 9.11765 0 
29.375 8 0 
30 9.45978 0 
28.125 4 0 
30 9.72989 0 
29.5436 8.77551 0 
29.7872 9.45978 0 
30 10 0 
29.9616 10.0384 0 
29.9232 10.0768 0 
29.8781 10 0 
29.7038 9.72989 0 
29.5732 9.45978 0 
29.8635 10.1365 0 
29.8013 10.0768 0 
29.7562 10 0 
29.3407 9.11765 0 
29.8038 10.1962 0 
29.7179 10.0384 0 
29.0879 8.77551 0 
29.6796 10.0768 0 
28.75 8 0 
29.5896 10 0 
29.682 10.1962 0 
29.3212 9.45978 0 
29.7137 10.2863 0 
28.8513 8.38776 0 
29.62 10.1365 0 
29.5133 10.0768 0 
29.5605 10.1962 0 
29.318 9.72989 0 
29.6237 10.3763 0 
29.423 10 0 
27.0833 0 0 
29.3851 10.0384 0 
29.4708 10.2863 0 
29.0681 9.45978 0 
29.5022 10.3763 0 
29.3471 10.0768 0 
29.3947 10.1962 0 
29.4922 10.5078 0 
27.75 6 0 
29.2882 10.1365 0 
29.2009 10 0 
29.3811 10.3763 0 
28.6181 8.77551 0 
26.9583 2 0 
29.2293 10.1962 0 
29.1257 10.0768 0 
29.3606 10.6394 0 
29.2162 10.3763 0 
28.6273 9.11765 0 
28.7679 9.45978 0 
29.1405 10.2863 0 
29.25 10.5078 0 
28.9787 10 0 
28.125 8 0 
28.8217 9.72989 0 
29.2395 10.6394 0 
28.9416 10.0384 0 
29.009 10.1962 0 
27 4 0 
29.0518 10.3763 0 
28.9045 10.0768 0 
29.119 10.6394 0 
28.8468 10.1365 0 
29.1744 10.8256 0 
28.4666 9.45978 0 
28.7892 10.1962 0 
28.69 10 0 
28.1489 8.77551 0 
28.9223 10.5078 0 
28.8333 10.3763 0 
28.9555 10.6394 0 
28.617 10.0768 0 
28.7024 10.2863 0 
28.9337 10.8256 0 
28.9882 11.0118 0 
28.7928 10.6394 0 
28.6156 10.3763 0 
28.5038 10.1962 0 
28.4012 10 0 
27.6992 8.38776 0 
28.8679 11.0118 0 
28.1088 9.45978 0 
28.3655 10.0384 0 
28.1935 9.72989 0 
27.5 8 0 
28.3298 10.0768 0 
28.5771 10.6394 0 
28.7485 11.0118 0 
28.489 10.5078 0 
27.8468 9.11765 0 
28.6098 10.8256 0 
28.2744 10.1365 0 
27.6621 8.77551 0 
28.3334 10.3763 0 
28.219 10.1962 0 
28.7333 11.2667 0 
28.5871 11.0118 0 
28.3626 10.6394 0 
28.0354 10 0 
28.1356 10.2863 0 
27.75 9.45978 0 
28.427 11.0118 0 
27.9662 10.0768 0 
28.0523 10.3763 0 
28.4949 11.2667 0 
28.184 10.8256 0 
28.0852 10.6394 0 
27.8587 10.1962 0 
28.2155 11.0118 0 
28.4783 11.5217 0 
27.9307 10.5078 0 
27.1759 8.77551 0 
25.875 4 0 
27.6697 10 0 
26.875 8 0 
27.6363 10.0384 0 
28.3594 11.5217 0 
27.6029 10.0768 0 
28.177 11.2667 0 
27.3262 9.45978 0 
27.4134 9.72989 0 
28.0057 11.0118 0 
27.6971 10.3763 0 
27.8094 10.6394 0 
28.2416 11.5217 0 
27.551 10.1365 0 
27.4992 10.1962 0 
26 6 0 
26.9863 9.11765 0 
28.0837 11.5217 0 
27.4211 10.2863 0 
27.7352 11.0118 0 
27.638 10.8256 0 
28.141 11.859 0 
27.2186 10 0 
27.9274 11.5217 0 
26.5417 8.38776 0 
27.3432 10.3763 0 
27.4616 10.6394 0 
26.6684 8.77551 0 
27.7621 11.2667 0 
26.9013 9.45978 0 
27.155 10.0768 0 
25 0 0 
26.25 8 0 
27.9066 11.859 0 
27.2294 10.5078 0 
27.467 11.0118 0 
27.7222 11.5217 0 
27.0563 10.1962 0 
27.1158 10.6394 0 
27.5191 11.5217 0 
26.7674 10 0 
26.9078 10.3763 0 
27.8036 12.1964 0 
26.7374 10.0384 0 
27.5976 11.859 0 
26.7074 10.0768 0 
27.1297 11.0118 0 
27.2334 11.2667 0 
26.1616 8.77551 0 
26.4044 9.45978 0 
27.6871 12.1964 0 
26.6608 10.1365 0 
26.9553 10.8256 0 
26.4658 9.72989 0 
27.2584 11.5217 0 
26.6142 10.1962 0 
27.5718 12.1964 0 
24.75 4 0 
26.544 10.2863 0 
26.6911 10.6394 0 
26.0333 9.11765 0 
25.625 8 0 
27.4193 12.1964 0 
26.7951 11.0118 0 
27.1983 11.859 0 
26.4737 10.3763 0 
27.0006 11.5217 0 
26.2261 10 0 
27.2684 12.1964 0 
26.3711 10.5078 0 
26.1706 10.0768 0 
25.9068 9.45978 0 
25.6301 8.77551 0 
27.3729 12.6271 0 
27.0723 12.1964 0 
26.5764 11.2667 0 
26.0842 10.1962 0 
26.2685 10.6394 0 
25.377 8.38776 0 
26.6777 11.5217 0 
26.3853 11.0118 0 
27.1446 12.6271 0 
26.8784 12.1964 0 
26.6935 11.859 0 
25.9539 10.3763 0 
26.1234 10.8256 0 
25 8 0 
25.6847 10 0 
26.3582 11.5217 0 
23.75 2 0 
25.6594 10.0384 0 
26.6314 12.1964 0 
25.634 10.0768 0 
26.8487 12.6271 0 
25.0992 8.77551 0 
25.3333 9.45978 0 
25.9784 11.0118 0 
25.5945 10.1365 0 
24.25 6 0 
25.7632 10.6394 0 
25.5549 10.1962 0 
26.9422 13.0578 0 
25.3422 9.72989 0 
25.4952 10.2863 0 
26.3874 12.1964 0 
26.8294 13.0578 0 
24.9782 9.11765 0 
25.968 11.5217 0 
25.4353 10.3763 0 
23.625 4 0 
26.7177 13.0578 0 
26.4709 12.6271 0 
26.0703 11.859 0 
25.7799 11.2667 0 
25.3477 10.5078 0 
26.5729 13.0578 0 
24.375 8 0 
26.0835 12.1964 0 
25.4927 11.0118 0 
25.0532 10 0 
24.5409 8.77551 0 
25.2597 10.6394 0 
26.4296 13.0578 0 
25.0081 10.0768 0 
24.7595 9.45978 0 
25.5816 11.5217 0 
24.9377 10.1962 0 
22.9167 0 0 
26.246 13.0578 0 
25.7833 12.1964 0 
25.1349 10.8256 0 
25.9977 12.6271 0 
24.2034 8.38776 0 
26.412 13.588 0 
24.831 10.3763 0 
26.0644 13.0578 0 
25.0097 11.0118 0 
25.3193 11.859 0 
26.1925 13.588 0 
25.1215 11.5217 0 
25.4183 12.1964 0 
23.75 8 0 
23.983 8.77551 0 
24.4216 10 0 
25.8356 13.0578 0 
24.6735 10.6394 0 
24.402 10.0384 0 
24.3824 10.0768 0 
24.1101 9.45978 0 
24.8375 11.2667 0 
24.3517 10.1365 0 
24.3209 10.1962 0 
25.4179 12.6271 0 
25.9145 13.588 0 
25.6093 13.0578 0 
24.2742 10.2863 0 
24.0443 9.72989 0 
23.8155 9.11765 0 
25.0573 12.1964 0 
24.2272 10.3763 0 
22.5 4 0 
24.4478 11.0118 0 
24.6646 11.5217 0 
24.158 10.5078 0 
25.3298 13.0578 0 
25.8819 14.1181 0 
25.5653 13.588 0 
24.0881 10.6394 0 
23.3961 8.77551 0 
25.7745 14.1181 0 
23.125 8 0 
23.7058 10 0 
25.6676 14.1181 0 
22.5 6 0 
24.6289 12.1964 0 
25.0535 13.0578 0 
23.9883 10.8256 0 
23.461 9.45978 0 
24.4349 11.859 0 
23.6731 10.0768 0 
25.5335 14.1181 0 
23.019 8.38776 0 
24.7229 12.6271 0 
23.6216 10.1962 0 
24.1341 11.5217 0 
25.1327 13.588 0 
23.8872 11.0118 0 
25.4 14.1181 0 
23.5426 10.3763 0 
24.7194 13.0578 0 
25.233 14.1181 0 
24.204 12.1964 0 
23.7472 11.2667 0 
22.8093 8.77551 0 
23.4243 10.6394 0 
22.5 8 0 
25.0671 14.1181 0 
24.3887 13.0578 0 
23.6052 11.5217 0 
24.6061 13.588 0 
22.9901 10 0 
25.2539 14.7461 0 
22.9769 10.0384 0 
24.8614 14.1181 0 
22.7421 9.45978 0 
22.9637 10.0768 0 
22.9429 10.1365 0 
21.375 4 0 
23.2515 11.0118 0 
22.5457 9.11765 0 
22.922 10.1962 0 
23.7117 12.1964 0 
25.046 14.7461 0 
23.9078 12.6271 0 
22.8899 10.2863 0 
24.6571 14.1181 0 
22.8574 10.3763 0 
22.5862 9.72989 0 
23.998 13.0578 0 
23.4145 11.859 0 
22.8089 10.5078 0 
22.1933 8.77551 0 
20.8333 0 0 
24.791 14.7461 0 
24.4076 14.1181 0 
21.875 8 0 
22.7595 10.6394 0 
23.0055 11.5217 0 
23.9777 13.588 0 
22.6878 10.8256 0 
21.822 8.38776 0 
23.2211 12.1964 0 
23.6104 13.0578 0 
24.1597 14.1181 0 
24.4776 14.7461 0 
22.6143 11.0118 0 
20.5417 2 0 
22.0242 9.45978 0 
22.2027 10 0 
22.1829 10.0768 0 
22.1513 10.1962 0 
24.6259 15.3741 0 
23.8624 14.1181 0 
22.5107 11.2667 0 
21.5771 8.77551 0 
24.5253 15.3741 0 
22.1017 10.3763 0 
24.0946 14.7461 0 
22.9704 12.6271 0 
24.4245 15.3741 0 
21.25 8 0 
23.1626 13.0578 0 
20.75 6 0 
22.404 11.5217 0 
22.0253 10.6394 0 
22.6655 12.1964 0 
24.3035 15.3741 0 
23.5669 14.1181 0 
23.2428 13.588 0 
20.25 4 0 
24.1821 15.3741 0 
22.2583 11.859 0 
21.9095 11.0118 0 
24.0354 15.3741 0 
23.6316 14.7461 0 
21.1769 9.11765 0 
22.7163 13.0578 0 
21.2482 9.45978 0 
23.2196 14.1181 0 
21.4154 10 0 
23.8883 15.3741 0 
21.4085 10.0384 0 
21.4016 10.0768 0 
21.3905 10.1365 0 
20.9332 8.77551 0 
21.3792 10.1962 0 
21.3616 10.2863 0 
22.108 12.1964 0 
20.625 8 0 
23.7106 15.3741 0 
21.3434 10.3763 0 
21.7377 11.5217 0 
21.3158 10.5078 0 
20.6106 8.38776 0 
22.874 14.1181 0 
20.9961 9.72989 0 
23.5323 15.3741 0 
21.2869 10.6394 0 
23.9109 16.0891 0 
23.0804 14.7461 0 
22.2122 13.0578 0 
21.2441 10.8256 0 
22.3997 13.588 0 
23.3184 15.3741 0 
21.91 12.6271 0 
23.7168 16.0891 0 
21.1989 11.0118 0 
22.4765 14.1181 0 
23.1037 15.3741 0 
20.2886 8.77551 0 
21.1336 11.2667 0 
20.4742 9.45978 0 
21.4902 12.1964 0 
23.4886 16.0891 0 
20 8 0 
20.5755 10 0 
20.5672 10.0768 0 
19.125 4 0 
21.0644 11.5217 0 
21.7064 13.0578 0 
20.5533 10.1962 0 
22.8492 15.3741 0 
20.5305 10.3763 0 
23.217 16.0891 0 
18.75 0 0 
22.4362 14.7461 0 
22.0799 14.1181 0 
20.9674 11.859 0 
20.493 10.6394 0 
22.5939 15.3741 0 
22.8917 16.0891 0 
20.4322 11.0118 0 
19 6 0 
20.8648 12.1964 0 
19.7252 9.11765 0 
21.4494 13.588 0 
19.6198 8.77551 0 
23.1959 16.8041 0 
19.375 8 0 
21.1471 13.0578 0 
22.2963 15.3741 0 
21.634 14.1181 0 
23.1028 16.8041 0 
19.3826 8.38776 0 
19.6592 9.45978 0 
23.0087 16.8041 0 
20.3354 11.5217 0 
22.5023 16.0891 0 
19.7357 10 0 
20.7266 12.6271 0 
22.9022 16.8041 0 
19.7337 10.0384 0 
19.7316 10.0768 0 
21.6986 14.7461 0 
19.7282 10.1365 0 
21.9981 15.3741 0 
19.7246 10.1962 0 
22.7943 16.8041 0 
19.7187 10.2863 0 
19.7123 10.3763 0 
19.7021 10.5078 0 
22.6703 16.8041 0 
21.1873 14.1181 0 
19.691 10.6394 0 
20.5814 13.0578 0 
22.5445 16.8041 0 
19.315 9.72989 0 
19.6735 10.8256 0 
20.1866 12.1964 0 
21.6575 15.3741 0 
18 4 0 
18.75 8 0 
22.04 16.0891 0 
18.9498 8.77551 0 
19.6542 11.0118 0 
22.3982 16.8041 0 
19.6249 11.2667 0 
22.2495 16.8041 0 
19.5925 11.5217 0 
20.6965 14.1181 0 
21.3165 15.3741 0 
18.8474 9.45978 0 
20.395 13.588 0 
22.076 16.8041 0 
20.8727 14.7461 0 
19.5453 11.859 0 
18.8678 10 0 
22.415 17.585 0 
18.8667 10.0768 0 
17.3333 2 0 
21.4999 16.0891 0 
21.8995 16.8041 0 
19.969 13.0578 0 
18.8645 10.1962 0 
18.8602 10.3763 0 
19.4934 12.1964 0 
18.125 8 0 
22.2346 17.585 0 
20.9365 15.3741 0 
18.8517 10.6394 0 
21.6943 16.8041 0 
18.261 8.77551 0 
18.1362 8.38776 0 
20.2023 14.1181 0 
22.0344 17.585 0 
18.8358 11.0118 0 
18.2149 9.11765 0 
19.4214 12.6271 0 
21.4858 16.8041 0 
20.5569 15.3741 0 
21.8073 17.585 0 
18.807 11.5217 0 
20.8831 16.0891 0 
17.25 6 0 
21.246 16.8041 0 
19.3437 13.0578 0 
16.6667 0 0 
18.0163 9.45978 0 
16.875 4 0 
[...]
POINT_DATA 922
SCALARS phi float 1
LOOKUP_TABLE default
-1.16419e+06
-15901.4
-686273
-20336.3
-395776
-20817.6
-271644
-24276.3
-1.2561e+06
-128452
-520484
-22761.8
-1.91873e+06
-12485.9
-507892
-60225.6
-1.45874e+06
-16895.6
-298519
-1.43441e+06
0
0
-521.204
-975827
-667.481
-941.493
-365723
0
-674279
-175414
-1.07212e+06
-744047
-6693.08
-16859.3
0
-563464
-146778
-50723.5
-696954
-116925
-634541
-202.389
-500506
-60879.4
-5970.38
-9021.89
-17592.9
-65.9444
-29002.5
-630.169
-586940
-11989.3
-66037.6
-80358.5
-34315
-5.08807e+06
0
-98575.1
-105504
-46198.6
-1.24629e+06
0
-318831
-67625.2
-340473
-1.26676e+06
-69756
-306881
-42075.3
-193021
-710730
-36152.5
-1.27756e+06
-113017
0
0
-19363.3
-61465.4
-1.4822e+06
-143625
-1579.85
-153961
-696772
-36982.5
-1.13596e+06
-196341
-32240.8
-2.32199e+06
-84467.1
-7906.82
-94637.4
-239176
-70816.3
-109386
0
-25704.1
-1.34549e+06
-848596
-71319.6
-37148.3
-131054
-823842
-75277.8
-48465
-54849.9
-1.19114e+06
-829.348
0
-487978
-160492
-5268.56
-738863
-23294.6
-2.0867e+06
-52669
-36772.7
-72040.1
-78033.2
-549801
-303496
-621153
-250.5
0
-1.13518e+06
-1.39904e+06
-117899
0
-1589.42
-84321.9
-119327
-1.15817e+06
-51445.8
-571.204
-74399.2
-58181.8
-486.762
-1.12775e+06
-623248
-464697
-83113.1
-438638
-222.405
-76369.9
0
0
-1.7736e+06
-528116
-537622
-86746.9
0
-69780.7
-346144
-409.959
0
-989614
-804360
-596918
-248.01
-536215
-1.08678e+06
-7924.94
-81510.3
-579388
-125910
-64180.8
-558.355
-1.03908e+06
-486.426
-612345
-67121.8
-105235
-142179
0
-76779
-691984
-1212.91
-1178.33
-105836
-94266.1
-613464
-2556.85
-1.8449e+06
-974178
-1.34177e+06
-125047
-375657
-114750
-2353.78
-55259.7
-77088.9
-298826
-87765.1
-371.997
-18932
-69402.3
-910694
-5434.32
-1.52087e+06
-274703
-927.309
-3118.07
-168048
-175886
-1991.36
-846557
-240.62
-595570
-222.773
-952218
-1.7839e+06
-79823.1
-82708.7
-863044
-701.528
-64423.3
-137312
-938415
-641.696
-590332
-491092
-1859.37
-4271.14
-101489
-72171.6
-613073
-132363
-416065
-1811.96
-590607
-166465
-432811
-4855.18
-160.006
-102666
-72963.6
-1.03445e+06
-424330
-1.30286e+06
-560.319
-4940.5
-101989
-2.95758e+06
-61880.5
-805079
-313114
-501235
-1650.26
-12631.2
-73091
-214139
-2.59386e+06
-163817
-25.5387
-246383
-24.3903
-630812
-73179.5
-94207.9
-12390.9
-244.3
-109345
-4048.14
-235.324
-706563
-159136
-906.48
-124261
-786555
-102588
-1.12705e+06
-887.485
-564341
-590717
-491472
-3.70778e+06
-67758.2
-2622.13
-659475
-73217.3
-2.47436e+06
-8306.12
-196679
-64940.5
-2488.21
-495938
0
-109621
-101410
-168.205
-121320
-545304
-2.7412e+06
-7016.46
-379490
-84403.8
-948277
-808.55
-391157
-7011.51
-1.11862e+06
-848620
-44974.4
-4.20524e+06
-68653.4
-62705.6
-230615
-415000
-2443.88
-19.9724
-20.9851
-97346.2
-16682
0
0
-1.52911e+06
-746968
-358815
-236.022
-162857
-96104
-2.42832e+06
-222.474
-459463
-6110.8
-17550
-1132.17
-425365
-768389
-634106
-1102.52
-54083.5
-908614
-63899.4
-202576
-713196
-79224.9
-843962
-180469
-3284.19
-104147
-58750.4
-78.2392
-837654
-65174.4
-5.57222e+06
0
-13694.3
-544031
-3154.5
-651260
-145.386
-5.353e+06
-747894
-69401.4
-8049.92
-49824.4
-1003.11
-54201.5
-568040
-7.29244e+06
-7761.34
-373099
-211169
-1.08164e+06
-357.637
-631046
-87874.5
-356.483
-104.542
-541459
-3378.65
-80680.6
-107.572
-33049.5
-1.02511e+06
-597707
0
-441579
0
-140453
-4.77392e+06
-19045.3
-255.833
-41274.6
-263214
-940351
-448728
-43419.6
-250.365
-8270.8
-4.10994e+06
-1534.48
-45329.2
-20448.4
-1.20632e+06
-400930
-827966
-1543.65
-347300
-83439
-172505
-505.406
-193.166
-965304
-1.2529e+06
-4626
-35283.2
-1.16193e+06
0
-690928
-46756.4
-920286
-31388.6
-360765
-32205.5
-4504.75
-189.121
-18081.5
-1.09182e+06
-883323
-5.06689e+06
-443946
-851850
-9521.25
-1402.71
-990661
-610079
-56725.9
-46198.8
-64669.4
-7.63836e+06
-152840
-757799
-1002.02
-1000.62
-576.504
-27282.5
-578.476
-165.2
-8555.09
-20349.7
-860699
-165.804
-4421.09
0
-26184.6
-9.11086e+06
-93745.8
-645157
0
-1.3046e+06
-585021
-31234.6
-402.097
-224417
-702091
-19066
-1.26348e+06
-391.425
-3.46445e+06
-485777
-20250.1
-2097.28
-51095.1
-9844.27
-1.1803e+06
-10375.1
-111222
-1164.54
-655394
-2038.49
-19475.4
-685.328
-431268
-207.426
-1.0588e+06
-649125
-6.9165e+06
-350375
-5912.26
0
-300834
-903235
-408.403
-3774.56
-5787.07
-29248.4
-33985.5
-13751.1
-1.20956e+06
-3950.27
-18791.9
-3.78891e+06
-113434
-1.47242e+06
-10661.1
-34160.3
-1.17816e+06
-2168.18
-720220
-76086.3
-11280.1
-1.40835e+06
-1644.66
-1651
-1.94041e+06
-1117.49
-3.99429e+06
-1123.61
-1.10737e+06
-534.061
-538.963
-62.4192
-1.29962e+06
-30459.4
-65.238
-9907.51
-1.00321e+06
-41003.3
-33.8042
-5716.64
-5.79451e+06
-632732
-59.9846
-556597
-7495.05
-27.8329
-1.14198e+06
-939.333
-854028
-890.807
-27581.2
-3.80338e+06
-19233.6
-16871.5
-945887
-72255.4
-3160.99
-45635.2
-1.5642e+06
-1748.14
-750417
-1.26024e+06
-681069
-10038.6
-1146.92
-505.598
-2862.26
-44.6475
-1.55027e+06
-1.05212e+06
-29.6964
-676585
-3614.05
-1568.56
-14959.3
-1.4664e+06
-81.6037
-7532.01
-6544.66
-486360
-73371.8
-1.31523e+06
-1123.51
-4.84665e+06
-2878.83
-535874
-5633.98
-875420
-9260.25
-1.0683e+06
-1.10007e+06
-13912.5
-21547.9
-3878
-635.72
-23142.1
-1759.83
-3374.61
-1768.39
-1065.89
-38948.9
-1078.86
-456.197
-376.68
-9391.81
-392.571
0
-818570
0
-3.11776e+06
-305.172
-1.52833e+06
-10092.1
-258.171
-1.90979e+06
-271943
-170.637
-337.267
-1939.57
-6102.14
-1.55752e+06
-7306.42
-17660.2
-5.49293e+06
-2655.93
-1733.7
-1.86514e+06
-522751
-9529.19
-6647.65
-1.45954e+06
-5178.55
-2886.22
0
-1.68302e+06
-1468.12
0
-11639.8
-4563.25
-2.61016e+06
-904.402
-1.26658e+06
0
-3381.25
-10114.4
-14891.6
-9112.33
-1.39056e+06
0
-9209.03
-12868
-16827.4
-7159.06
-988986
-1.0967e+06
-23173.2
-24283.7
-460774
0
-25696
-7534.19
-1.01648e+06
-39336.5
-21236
-314.248
-19576.7
-664606
-7153.39
-38568.4
-11229.8
-1.83257e+06
-136134
-581030
-3325.31
-53466.2
-1.61396e+06
-48167.4
-280200
-78.1809
-15801
-7819.74
-24285.3
-30009.1
-9375.61
-1.44294e+06
-17213.4
-61755.8
-56867
-5481.71
-1409.02
-32692.5
-7721.6
-1.24568e+06
-51689.7
-920787
0
-8593.79
-120668
-29769
-2105.68
-10963.7
-48651.4
-998259
-61654.4
-78993.1
-1.57776e+06
-2167.58
-8275.41
-26155.7
-4335.97
-685130
-13784.2
-143401
-48258.7
-1.77931e+06
-59001.5
-4510
-12756
-26073.4
-85418.5
-322440
-850772
-29990.1
-52881.3
-3282.08
-2324.31
-2107.92
-45588.2
-45581.7
-1581.51
-60379
-1.38706e+06
-1.374e+06
-27668.7
-38243
-44596.5
-44527.4
-1.18413e+06
-709582
0
-33101
-7600.1
-1.36133e+06
-1.60988e+06
-460.207
-60185.8
-1.02127e+06
-33697.7
-41092.9
-1.13936e+06
-52834.2
-160285
-53006.2
-822401
-22121.4
-618271
-2781.28
-863747
-60195.3
-575477
-65054.1
-21998.3
-737.654
-29551.4
-523369
-28637.2
-280360
-10012.6
-13715.9
-3.10075e+06
-52505
-155651
-8265.35
-40794.8
-1.76429e+06
-72665.5
-18878.6
-12914.7
-3654.06
-59132.1
-5770.59
-33056.3
-1.35101e+06
-279259
-386.481
-7453.96
-2.42005e+06
-44204
-13485.8
-6.54455e+06
-6466.54
-6.88008e+06
-288010
-24895.2
-5.18393e+06
-29654.2
-46145.4
-3271.11
0
-82165.8
-4.38972e+06
-16341.8
-21378.7
-2152.52
-5.0079e+06
-32462.7
-3.19223e+06
-33375.2
-1.67527e+06
-2.23212e+06
-623.856
-883936
-32490
-527318
-69.6996
-16232.2
-274709
-23003.4
-26721.3
-2.69197e+06
-22699.2
0
-323.996
-14772.8
-23058.2
-25872.5
-34974.7
-904.027
-17422.3
-21401.1
-1938.26
-121737
-13149.8
-5312.14
-20073.7
-2757.45
-6124.52
-4521.43
-4806.31
-17225.2
-12306.3
-2.55927e+06
-5250.07
-20306.9
-3836.13
-2.14008e+06
-24061.6
-7580.89
-2898.29
-13776.6
-7790.77
-21511.9
-2.65534e+06
-10440.4
-2048.4
-10328.8
-19306.1
-1350.01
-3.68661e+06
-14875.4
-15558.2
-792.654
0
0
-3.35304e+06
-30781.2
-31052.2
-29341.2
-27337.7
-493.122
-25826.1
-2.54782e+06
-23888.5
-22419.2
-20529.9
-2109.55
-19184.9
-17446.1
-2.98563e+06
-16282.4
-4902.86
-14909.3
-14029
-13061
-10067
-8098.86
-5324.49
-3190.92
-1420.98
-3.77333e+06
-370.111
0
0
-389.911
-1466.15
-3399.45
-6056.04
-3.8862e+06
-10495.7
-3463.36
-2558.07
-3.44768e+06
-1754.58
-1072.36
-523.928
-164.724
0
0
-830.373
-4.96345e+06
-5051.01
-12081.6
-21929.7
-41020.2
-4.46448e+06
-5185.81
-4573.99
-4034.38
-3558.13
-3087.14
-2656.27
-2248.13
-1864.88
-1516
-1171.18
-880.848
-482.328
-316.093
-213.798
0
0
0
-711.247
-2823.46
-5701.64
-9612.86
-14286.4
-20189.3
-26190
-36899.6
-49293.4
VECTORS Displacement float
0 0 0
0 0.0137719 0
0.0204027 0 0
0 0.0271259 0
0.0401429 0 0
0 0.0400606 0
0.058851 0 0
0 0.0529231 0
0.0635508 0.0149892 0
0.0767667 0 0
0 0.0695089 0
0.0596322 0.0351686 0
0 0.096993 0
0.0573338 0.0550948 0
0.0906926 0.013262 0
0.0937165 0 0
0.0543833 0.0904408 0
0.109508 0 0
0.114993 0.0113022 0
0.116368 0.0228943 0
0.124049 0 0
0.116125 0.0292331 0
0.115003 0.0361708 0
0.124808 0.0212413 0
0.113296 0.0433634 0
0.111746 0.0506177 0
0.109505 0.0621862 0
0.136876 0 0
0.132537 0.0194807 0
0.135888 0.00874253 0
0.106487 0.0790205 0
0.139878 0.0173617 0
0.1376 0.0296969 0
0.136339 0.0388344 0
0.147863 0 0
0.146499 0.0150063 0
0.134166 0.0516416 0
0.149068 0.0231425 0
0.130452 0.0765856 0
0.152095 0.00533496 0
0.152356 0.0123702 0
0.156325 0 0
0.157353 0.00940949 0
0.15727 0.0162172 0
0.156134 0.0267034 0
0.156581 0.0285326 0
0.157338 0.0304507 0
0.158385 0.0338543 0
0.15912 0.0226839 0
0.159578 0.0405125 0
0.161383 0.00614564 0
0.160497 0.0471139 0
0.159741 0.0270329 0
0.160814 0.035421 0
0.160809 0.0552943 0
0.571634 0.274809 0
0.922041 0.426433 0
0.162164 0.0519389 0
0.162318 0.038139 0
0.161624 0.0316257 0
0.975709 0.399817 0
0.739976 0.320208 0
0.163517 0.0478439 0
0.161867 0.0272218 0
0.974979 0.374597 0
0.357425 0.145191 0
0.161806 0.0235355 0
0.573694 0.22926 0
0.161559 0.0184492 0
0.164502 0.0413068 0
0.941893 0.3323 0
0.162525 0.0285576 0
0.971925 0.354542 0
0.161919 0.0204135 0
0.737019 0.25732 0
0.389599 0.135416 0
0.866784 0.27959 0
0.163888 0.0308014 0
0.956429 0.325928 0
0.16502 0.0362318 0
0.161965 0 0
0.216217 0.0609637 0
0.920913 0.264343 0
0.163376 0.0258742 0
0.944005 0.282724 0
0.279932 0.0850582 0
0.712661 0.216762 0
0.945671 0.290462 0
0.162912 0.00810608 0
0.405564 0.124182 0
0.165557 0.0316554 0
0.936478 0.249755 0
0.163686 0.0199194 0
0.161961 0.000809245 0
0.544039 0.157578 0
0.209329 0.047529 0
0.927306 0.258287 0
0.888659 0.21904 0
0.164382 0.020954 0
0.164374 0.0230968 0
0.679198 0.168373 0
0.929162 0.229029 0
0.165883 0.0279441 0
0.163789 0.014173 0
0.165037 0.024594 0
0.921218 0.229749 0
0.170369 0.0297517 0
0.361118 0.086626 0
0.164346 0.00248125 0
0.794981 0.178297 0
0.178409 0.0328452 0
0.914161 0.205637 0
0.210548 0.0447824 0
0.906985 0.222314 0
0.165259 0.0203237 0
0.25226 0.0566846 0
0.166198 0.024289 0
0.165131 0.0161353 0
0.859885 0.16396 0
0.62242 0.132472 0
0.903343 0.177292 0
0.170015 0.0251013 0
0.343641 0.0788266 0
0.898814 0.177749 0
0.884443 0.189573 0
0.890925 0.154366 0
0.448035 0.0956489 0
0.195364 0.0305107 0
0.166353 0.0207125 0
0.165566 0.0118248 0
0.881848 0.169624 0
0.166057 0.0169773 0
0.166711 0.0204796 0
0.166276 0.0181633 0
0.165519 0.00964124 0
0.167116 0.0202524 0
0.818527 0.134727 0
0.87998 0.153071 0
0.572026 0.100434 0
0.166276 0.0140896 0
0.886453 0.136372 0
0.168969 0.0204103 0
0.166189 0.0120403 0
0.291603 0.0450942 0
0.172418 0.0211572 0
0.863314 0.15511 0
0.876958 0.134211 0
0.690018 0.103625 0
0.166844 0.0169719 0
0.186707 0.0250719 0
0.16668 0.0135776 0
0.873433 0.117845 0
0.167195 0.0165012 0
0.208489 0.0299313 0
0.85869 0.1255 0
0.778914 0.088793 0
0.498887 0.0667892 0
0.168816 0.0160652 0
0.860502 0.0988143 0
0.842825 0.125634 0
0.266913 0.0419828 0
0.166896 0.0078182 0
0.166072 -0.00143305 0
0.167143 0.0131091 0
0.166736 0.00487173 0
0.167287 0.0127618 0
0.841137 0.112718 0
0.167415 0.0124013 0
0.85483 0.0953161 0
0.167163 0.0094962 0
0.167218 0.0104077 0
0.834062 0.0818015 0
0.179139 0.0163556 0
0.337921 0.0494613 0
0.839534 0.101276 0
0.167589 0.011819 0
0.167789 0.0112207 0
0.165672 -0.00128633 0
0.167303 0.00619397 0
0.837782 0.0875208 0
0.168143 0.0103622 0
0.727622 0.0711374 0
0.447913 0.0528578 0
0.821634 0.0947787 0
0.167395 0.00846578 0
0.836646 0.0753836 0
0.167163 0.002278 0
0.16886 0.00962407 0
0.230656 0.0183302 0
0.167291 0.00331491 0
0.839881 0.0643527 0
0.167376 0.00533979 0
0.167393 0.00780197 0
0.164123 0 0
0.167346 -6.71598e-05 0
0.819156 0.0745836 0
0.173289 0.00944173 0
0.565625 0.0505277 0
0.835133 0.0610498 0
0.167452 0.00678947 0
0.181106 0.00985091 0
0.832736 0.0484434 0
0.167382 0.00372421 0
0.167818 0.00531688 0
0.800839 0.0678755 0
0.16738 0.00336839 0
0.816702 0.0528233 0
0.167374 0.00300895 0
0.376419 0.0199156 0
0.673545 0.0318245 0
0.167345 -0.00126117 0
0.16737 0.000448 0
0.800209 0.0591636 0
0.167375 0.00243434 0
0.209069 0.0134424 0
0.167342 0.000810459 0
0.806666 0.035604 0
0.167352 0.00184471 0
0.79967 0.0512311 0
0.166514 -0.0057228 0
0.16728 0.000916201 0
0.170475 0.00323484 0
0.167289 -0.00280517 0
0.167392 -0.00512509 0
0.798965 0.0415496 0
0.249012 0.0153619 0
0.814823 0.0291645 0
0.16719 -3.67678e-05 0
0.752385 0.0215643 0
0.167023 -0.00198732 0
0.798387 0.0325506 0
0.167129 -0.00145794 0
0.166903 -0.00268671 0
0.16705 -0.00448468 0
0.167063 -0.00610105 0
0.77856 0.0396306 0
0.797685 0.0215337 0
0.335574 0.0183998 0
0.166672 -0.00380447 0
0.167099 -0.00293726 0
0.16694 -0.00774219 0
0.611487 0.0180091 0
0.191597 -0.000225387 0
0.777614 0.0255079 0
0.797123 0.0110775 0
0.783608 0.00199056 0
0.166285 -0.00553918 0
0.167489 -0.00504676 0
0.166901 -0.0102471 0
0.166372 -0.00766726 0
0.437839 0.0117794 0
0.163603 -0.00487606 0
0.166285 -0.00801028 0
0.795397 -0.00162662 0
0.166195 -0.00835608 0
0.776767 0.00911222 0
0.166461 -0.0109449 0
0.166347 -0.0101576 0
0.169111 -0.00687946 0
0.166053 -0.00889632 0
0.165289 -0.0117219 0
0.165685 -0.00812668 0
0.165908 -0.00944096 0
0.756753 0.0142551 0
0.166129 -0.0106459 0
0.165668 -0.0102758 0
0.791518 -0.012999 0
0.756571 0.00800102 0
0.166057 -0.0128315 0
0.281709 -0.0100955 0
0.165418 -0.0111232 0
0.165543 -0.0100927 0
0.756419 0.00202629 0
0.776205 -0.0102566 0
0.547918 -0.0110611 0
0.178978 -0.00838503 0
0.16505 -0.0124032 0
0.756256 -0.00545793 0
0.165937 -0.0154118 0
0.740171 -0.0198582 0
0.165421 -0.0116716 0
0.165239 -0.0142629 0
0.165506 -0.0160155 0
0.164604 -0.0137237 0
0.756132 -0.0126853 0
0.165035 -0.0149352 0
0.165313 -0.015792 0
0.195521 -0.0104314 0
0.164691 -0.0160013 0
0.162459 0 0
0.756036 -0.0217185 0
0.644389 -0.0306047 0
0.163994 -0.0157055 0
0.773858 -0.0325692 0
0.165124 -0.0179097 0
0.732164 -0.0134743 0
0.164107 -0.017657 0
0.755891 -0.0305016 0
0.163248 -0.0178053 0
0.247979 -0.0114321 0
0.731933 -0.0245973 0
0.170514 -0.0174994 0
0.476789 -0.0295311 0
0.164588 -0.020523 0
0.164242 -0.021028 0
0.163739 -0.020754 0
0.755203 -0.0412877 0
0.163088 -0.0201871 0
0.163613 -0.021079 0
0.163484 -0.0214066 0
0.163754 -0.022088 0
0.162261 -0.02077 0
0.163286 -0.0219199 0
0.16308 -0.0224399 0
0.710442 -0.0577583 0
0.731714 -0.0381455 0
0.754566 -0.0519233 0
0.162758 -0.0232342 0
0.163165 -0.0236389 0
0.163408 -0.0236919 0
0.318285 -0.0209389 0
0.162416 -0.0240426 0
0.163226 -0.0145454 0
0.161317 -0.0239707 0
0.161619 -0.0237646 0
0.161881 -0.0252443 0
0.750767 -0.0643626 0
0.707672 -0.0399206 0
0.731453 -0.0547428 0
0.161316 -0.0264681 0
0.162603 -0.0262126 0
0.707668 -0.0451116 0
0.162863 -0.0255839 0
0.161606 -0.0279883 0
0.707659 -0.0502332 0
0.161686 -0.0223875 0
0.215038 -0.0315485 0
0.740189 -0.0750062 0
0.160416 -0.0282339 0
0.161818 -0.0282525 0
0.162729 -0.0280309 0
0.161336 -0.0286118 0
0.707639 -0.0566097 0
0.161952 -0.0279301 0
0.416103 -0.0428977 0
0.160886 -0.0295983 0
0.158845 -0.0293078 0
0.730898 -0.0748838 0
0.159459 -0.0300148 0
0.707603 -0.0629145 0
0.160162 -0.0311242 0
0.655266 -0.07179 0
0.707529 -0.0707424 0
0.166708 -0.0322761 0
0.15811 -0.0325187 0
0.160663 -0.0312804 0
0.159006 -0.0334317 0
0.160861 -0.0305066 0
0.70743 -0.0784712 0
0.519375 -0.0716486 0
0.156555 -0.0351171 0
0.724529 -0.0975529 0
0.159061 -0.0349874 0
0.679389 -0.0699616 0
0.158913 -0.0352863 0
0.707274 -0.0879818 0
0.159247 -0.03489 0
0.158764 -0.035587 0
0.158534 -0.036058 0
0.159627 -0.0188569 0
0.157197 -0.0368304 0
0.159117 -0.035069 0
0.1583 -0.0365332 0
0.15692 -0.0365082 0
0.679363 -0.0797828 0
0.187951 -0.0377828 0
0.157935 -0.0372577 0
0.70706 -0.0973322 0
0.157558 -0.0379916 0
0.158064 -0.0375545 0
0.347488 -0.0658038 0
0.154588 -0.0386843 0
0.156985 -0.0390804 0
0.15832 -0.036444 0
0.156834 0 0
0.679281 -0.0917094 0
0.70592 -0.108413 0
0.158536 -0.0352459 0
0.156384 -0.0401897 0
0.154232 -0.0417565 0
0.607082 -0.111113 0
0.1555 -0.0417956 0
0.157553 -0.0375384 0
0.152518 -0.0425019 0
0.221437 -0.0482549 0
0.704769 -0.119403 0
0.679096 -0.106214 0
0.154559 -0.0434508 0
0.155683 -0.0109961 0
0.15628 -0.0412507 0
0.155788 -0.0424061 0
0.155505 -0.0429757 0
0.155041 -0.0438738 0
0.650961 -0.0995848 0
0.690195 -0.129779 0
0.153143 -0.0457828 0
0.155693 -0.0414104 0
0.650957 -0.104282 0
0.154305 -0.0452577 0
0.678721 -0.123717 0
0.149977 -0.0478505 0
0.650946 -0.108976 0
0.155888 -0.0398024 0
0.168494 -0.0503617 0
0.155166 -0.0320772 0
0.151607 -0.0481738 0
0.153143 -0.0473429 0
0.149562 -0.0487555 0
0.650931 -0.114603 0
0.657892 -0.137395 0
0.291051 -0.0663358 0
0.154998 -0.0228619 0
0.650903 -0.120224 0
0.149361 -0.0513646 0
0.151298 -0.0504173 0
0.650853 -0.126999 0
0.677841 -0.144604 0
0.153087 -0.0464184 0
0.148386 -0.0530258 0
0.152661 -0.0477695 0
0.535114 -0.118846 0
0.152111 -0.0493832 0
0.65078 -0.133767 0
0.151967 -0.0496571 0
0.151822 -0.0499325 0
0.151598 -0.0503636 0
0.15266 -0.0463469 0
0.151369 -0.0507982 0
0.151016 -0.0514599 0
0.146925 -0.0545576 0
0.15293 -0.0440868 0
0.65065 -0.141905 0
0.150653 -0.0521291 0
0.148425 -0.0548189 0
0.150102 -0.0531204 0
0.151994 -0.0464521 0
0.377847 -0.0975163 0
0.150704 -0.0513518 0
0.650485 -0.150038 0
0.149527 -0.0541268 0
0.618529 -0.132971 0
0.659052 -0.166097 0
0.143746 -0.0576868 0
0.148669 -0.055574 0
0.151909 -0.0602273 0
0.650244 -0.159769 0
0.143775 -0.0587027 0
0.618514 -0.142028 0
0.147761 -0.0570437 0
0.238813 -0.0850266 0
0.649961 -0.169506 0
0.149357 -0.0509909 0
0.146443 -0.0590929 0
0.148682 -0.0538149 0
0.144101 -0.0608538 0
0.618439 -0.152625 0
0.149659 -0.0481181 0
0.147759 -0.0563249 0
0.147491 -0.0568568 0
0.149387 -0.0263467 0
0.145035 -0.0611777 0
0.140466 -0.0630146 0
0.14706 -0.0576911 0
0.648189 -0.180498 0
0.146377 -0.0589681 0
0.618271 -0.165171 0
0.147576 0 0
0.457664 -0.144541 0
0.159355 -0.0695473 0
0.143061 -0.0639967 0
0.14531 -0.0608741 0
0.64533 -0.191128 0
0.617968 -0.18013 0
0.143662 -0.0636437 0
0.146231 -0.0402379 0
0.14093 -0.0668913 0
0.145397 -0.0569749 0
0.136218 -0.0685235 0
0.145676 -0.0554452 0
0.585544 -0.166455 0
0.146116 -0.0518261 0
0.137639 -0.0688877 0
0.60143 -0.191729 0
0.139429 -0.0703169 0
0.585534 -0.170826 0
0.145337 -0.054379 0
0.144145 -0.0596347 0
0.585516 -0.175248 0
0.14113 -0.0675497 0
0.617432 -0.197906 0
0.143059 -0.0625997 0
0.137947 -0.070638 0
0.585481 -0.180219 0
0.142934 -0.0628625 0
0.142807 -0.0631259 0
0.186248 -0.083785 0
0.142608 -0.0635369 0
0.520551 -0.185617 0
0.142404 -0.0639495 0
0.585434 -0.185258 0
0.142089 -0.0645746 0
0.141765 -0.0652031 0
0.141276 -0.0661279 0
0.585365 -0.191035 0
0.13219 -0.0738918 0
0.14077 -0.0670592 0
0.134723 -0.0743903 0
0.585274 -0.196899 0
0.141357 -0.0637013 0
0.140024 -0.068389 0
0.137252 -0.0728808 0
0.364174 -0.146755 0
0.142937 -0.0295021 0
0.142329 -0.0552182 0
0.615088 -0.218371 0
0.141744 -0.0595166 0
0.139241 -0.0697317 0
0.585128 -0.203685 0
0.138109 -0.0715898 0
0.584942 -0.210574 0
0.136908 -0.073467 0
0.129139 -0.0788439 0
0.226404 -0.106968 0
0.139322 -0.0647984 0
0.130638 -0.0789272 0
0.584699 -0.218593 0
0.128022 -0.0808851 0
0.135197 -0.0759702 0
0.137894 -0.0683658 0
0.548857 -0.203248 0
0.137654 -0.0688966 0
0.139006 -0.0156675 0
0.554133 -0.226622 0
0.58441 -0.226722 0
0.131542 -0.0797807 0
0.137272 -0.0697234 0
0.136675 -0.0709744 0
0.133366 -0.0784762 0
0.138337 -0.0582451 0
0.548815 -0.211803 0
0.156042 -0.0946921 0
0.135756 -0.0728109 0
0.583659 -0.23596 0
0.137474 -0.0632485 0
0.137667 -0.061068 0
0.126425 -0.0834325 0
0.548741 -0.221281 0
0.134352 -0.0754242 0