# vtk DataFile Version 3.0
File generated from DClib
ASCII

DATASET UNSTRUCTURED_GRID
POINTS 1909 float
50 0 0 
48.75 0 0 
50 1.66667 0 
47.5 0 0 
50 3.33333 0 
46.25 0 0 
50 5 0 
45 0 0 
43.75 0 0 
50 6.66667 0 
43 2 0 
42.5 0 0 
50 8.33333 0 
43 4.66667 0 
41.25 0 0 
41.075 2 0 
50 10 0 
40 0 0 
43 7.33333 0 
39.15 2 0 
38.75 0 0 
43 10 0 
37.5 0 0 
37.225 2 0 
36.25 0 0 
36 4 0 
35.3 2 0 
36 5 0 
35 0 0 
35.325 4 0 
36 6 0 
36 7 0 
34.65 4 0 
36 8 0 
33.75 0 0 
33.975 4 0 
36 9 0 
33.375 2 0 
33.3 4 0 
36 10 0 
32.5 0 0 
32.625 4 0 
33 6 0 
31.95 4 0 
33 7.45455 0 
31.45 2 0 
31.25 0 0 
31.95 6 0 
33 8.79545 0 
31.275 4 0 
33 10 0 
30.6 4 0 
30 0 0 
30.9 6 0 
29.925 4 0 
29.525 2 0 
29.85 6 0 
29.25 4 0 
28.75 0 0 
30 8 0 
30 8.45455 0 
28.575 4 0 
29.625 8 0 
30 8.90909 0 
28.8 6 0 
30 9.25 0 
29.782 8.90909 0 
30 9.59091 0 
29.9487 9.59091 0 
29.25 8 0 
29.7462 9.25 0 
30 9.79545 0 
29.897 9.59091 0 
29.564 8.90909 0 
29.9547 9.79545 0 
29.3462 8.45455 0 
29.84 9.59091 0 
30 10 0 
29.8975 9.79545 0 
29.9882 10 0 
29.9902 10.0098 0 
29.7827 9.59091 0 
29.9765 10 0 
29.9804 10.0196 0 
29.9667 10.0098 0 
29.9591 10 0 
29.9686 10.0196 0 
29.9659 10.0341 0 
29.9569 10.0196 0 
29.9418 10 0 
29.9395 10.0196 0 
29.9515 10.0485 0 
29.932 10.0098 0 
29.9424 10.0341 0 
29.8241 9.79545 0 
29.7181 9.59091 0 
29.9166 10 0 
29.9397 10.0485 0 
29.9222 10.0196 0 
29.9279 10.0485 0 
29.9305 10.0695 0 
29.8914 10 0 
29.9077 10.0341 0 
27.9 4 0 
29.897 10.0196 0 
29.9106 10.0485 0 
29.8817 10.0098 0 
29.907 10.0695 0 
29.8933 10.0485 0 
29.9095 10.0905 0 
29.8719 10.0196 0 
27.6 2 0 
29.8556 10 0 
29.8978 10.0905 0 
29.6531 9.59091 0 
29.3437 8.90909 0 
27.5 0 0 
29.8681 10.0485 0 
29.886 10.0905 0 
29.8574 10.0341 0 
29.4839 9.25 0 
29.8723 10.0695 0 
29.7289 9.79545 0 
29.836 10.0196 0 
29.8687 10.0905 0 
29.8197 10 0 
29.8797 10.1203 0 
29.843 10.0485 0 
29.8513 10.0905 0 
29.81 10.0098 0 
29.8561 10.1203 0 
29.8002 10.0196 0 
29.8221 10.0695 0 
29.8072 10.0485 0 
29.8262 10.0905 0 
29.5782 9.59091 0 
29.8498 10.1502 0 
29.7695 10 0 
29.7858 10.0341 0 
29.838 10.1502 0 
29.8215 10.1203 0 
29.8011 10.0905 0 
29.8262 10.1502 0 
29.7714 10.0485 0 
28.875 8 0 
29.75 10.0196 0 
29.8089 10.1502 0 
29.7654 10.0905 0 
29.7193 10 0 
29.7916 10.1502 0 
29.7505 10.0695 0 
29.8079 10.1921 0 
29.7713 10.1203 0 
29.7096 10.0098 0 
29.6047 9.79545 0 
29.503 9.59091 0 
29.7213 10.0485 0 
29.7665 10.1502 0 
29.6999 10.0196 0 
29.7844 10.1921 0 
29.7296 10.0905 0 
29.6856 10.0341 0 
29.7414 10.1502 0 
29.7497 10.1921 0 
29.6503 10 0 
29.7661 10.2339 0 
29.6712 10.0485 0 
29.6999 10.1203 0 
29.7543 10.2339 0 
29.6796 10.0905 0 
29.7057 10.1502 0 
29.7425 10.2339 0 
29.1235 8.90909 0 
29.6309 10.0196 0 
29.6504 10.0695 0 
29.4146 9.59091 0 
29.7252 10.2339 0 
29.6996 10.1921 0 
29.6701 10.1502 0 
29.7079 10.2339 0 
29.6296 10.0905 0 
29.5813 10 0 
29.6023 10.0485 0 
29.5716 10.0098 0 
29.6828 10.2339 0 
29.7086 10.2914 0 
29.2101 9.25 0 
29.562 10.0196 0 
29.6201 10.1502 0 
29.6578 10.2339 0 
29.4428 9.79545 0 
29.5999 10.1203 0 
29.6849 10.2914 0 
29.6283 10.1921 0 
29.5477 10.0341 0 
29.3259 9.59091 0 
29.5608 10.0905 0 
29.5335 10.0485 0 
29.6221 10.2339 0 
29.6503 10.2914 0 
29.5702 10.1502 0 
29.4881 10 0 
29.5128 10.0695 0 
29.6511 10.3489 0 
29.5866 10.2339 0 
29.6392 10.3489 0 
29.4689 10.0196 0 
29.6002 10.2914 0 
29.6273 10.3489 0 
29.4921 10.0905 0 
29.61 10.3489 0 
29.5286 10.1921 0 
29.5016 10.1502 0 
29.5368 10.2339 0 
29.5926 10.3489 0 
29.4405 10.0485 0 
29.2199 9.59091 0 
29.4626 10.1203 0 
29.3949 10 0 
28.9 8.90909 0 
29.5676 10.3489 0 
29.5291 10.2914 0 
29.3853 10.0098 0 
28.6923 8.45455 0 
29.487 10.2339 0 
29.5426 10.3489 0 
29.3758 10.0196 0 
29.5734 10.4266 0 
29.4331 10.1502 0 
29.3993 10.0905 0 
28.5 8 0 
29.3617 10.0341 0 
29.5496 10.4266 0 
29.5071 10.3489 0 
29.2327 9.79545 0 
29.3475 10.0485 0 
29.1136 9.59091 0 
29.4187 10.2339 0 
29.5148 10.4266 0 
29.4716 10.3489 0 
29.3918 10.1921 0 
29.3271 10.0695 0 
29.4298 10.2914 0 
29.2714 10 0 
29.3406 10.1502 0 
28.9208 9.25 0 
29.3066 10.0905 0 
29.4648 10.4266 0 
29.422 10.3489 0 
29.4958 10.5042 0 
29.2524 10.0196 0 
27.75 6 0 
29.3504 10.2339 0 
29.4837 10.5042 0 
29.4718 10.5042 0 
29.2774 10.1203 0 
29.4543 10.5042 0 
29.3724 10.3489 0 
29.2244 10.0485 0 
29.4369 10.5042 0 
29.3938 10.4266 0 
28.9853 9.59091 0 
29.2481 10.1502 0 
28.6766 8.90909 0 
29.4119 10.5042 0 
29.2934 10.2914 0 
27.225 4 0 
29.148 10 0 
29.2582 10.2339 0 
29.1837 10.0905 0 
29.3869 10.5042 0 
29.1385 10.0098 0 
29.3044 10.3489 0 
29.1291 10.0196 0 
29.2072 10.1921 0 
29.3514 10.5042 0 
29.1152 10.0341 0 
29.3929 10.6071 0 
29.2949 10.4266 0 
29.1013 10.0485 0 
29.3686 10.6071 0 
29.316 10.5042 0 
29.2364 10.3489 0 
28.9623 9.79545 0 
29.1257 10.1502 0 
29.1662 10.2339 0 
29.0811 10.0695 0 
28.8566 9.59091 0 
29.3336 10.6071 0 
29.2666 10.5042 0 
29.0609 10.0905 0 
28.9875 10 0 
29.2835 10.6071 0 
29.1448 10.3489 0 
29.0321 10.1203 0 
29.2173 10.5042 0 
29.1098 10.2914 0 
28.125 8 0 
28.9688 10.0196 0 
29.1594 10.4266 0 
28.611 9.25 0 
29.29 10.71 0 
28.4486 8.90909 0 
29.0443 10.2339 0 
29.0033 10.1502 0 
29.2777 10.71 0 
28.9413 10.0485 0 
29.2128 10.6071 0 
29.2655 10.71 0 
29.1497 10.5042 0 
29.2478 10.71 0 
28.7003 9.59091 0 
29.0533 10.3489 0 
29.2303 10.71 0 
28.9629 10.1921 0 
28.9013 10.0905 0 
29.2051 10.71 0 
29.0822 10.5042 0 
29.1801 10.71 0 
28.827 10 0 
29.1144 10.6071 0 
28.8177 10.0098 0 
28.9225 10.2339 0 
28.8085 10.0196 0 
29.1447 10.71 0 
28.7949 10.0341 0 
28.8443 10.1502 0 
28.977 10.4266 0 
28.9322 10.3489 0 
29.1094 10.71 0 
28.7813 10.0485 0 
28.9912 10.5042 0 
29.1562 10.8438 0 
28.5436 9.59091 0 
28.7615 10.0695 0 
28.8669 10.2914 0 
29.1313 10.8438 0 
28.6184 9.79545 0 
29.0602 10.71 0 
28.2207 8.90909 0 
28.7418 10.0905 0 
28.0378 8.45455 0 
28.9798 10.6071 0 
29.0958 10.8438 0 
29.0112 10.71 0 
28.9005 10.5042 0 
28.7136 10.1203 0 
28.7644 10.2339 0 
28.8113 10.3489 0 
29.0454 10.8438 0 
28.6223 10 0 
28.6854 10.1502 0 
28.2746 9.25 0 
28.9441 10.71 0 
28.6042 10.0196 0 
27.75 8 0 
28.9747 10.8438 0 
28.6459 10.1921 0 
28.5773 10.0485 0 
29.0225 10.9775 0 
28.3532 9.59091 0 
28.7804 10.5042 0 
28.736 10.4266 0 
28.8772 10.71 0 
29.0097 10.9775 0 
28.9971 10.9775 0 
28.799 10.6071 0 
28.9791 10.9775 0 
28.5384 10.0905 0 
28.6064 10.2339 0 
28.6543 10.3489 0 
28.9611 10.9775 0 
28.8769 10.8438 0 
27.9867 8.90909 0 
26.25 0 0 
28.9358 10.9775 0 
28.7871 10.71 0 
28.9106 10.9775 0 
28.6607 10.5042 0 
28.4177 10 0 
26.55 4 0 
28.552 10.2914 0 
28.483 10.1502 0 
28.4087 10.0098 0 
28.8751 10.9775 0 
28.3998 10.0196 0 
28.3866 10.0341 0 
28.8399 10.9775 0 
28.6974 10.71 0 
28.3735 10.0485 0 
28.1625 9.59091 0 
28.7436 10.8438 0 
28.4976 10.3489 0 
28.3543 10.0695 0 
28.791 10.9775 0 
28.4052 10.2339 0 
28.3352 10.0905 0 
28.8519 11.1481 0 
28.1869 9.79545 0 
28.5607 10.6071 0 
28.5053 10.5042 0 
28.7423 10.9775 0 
28.8258 11.1481 0 
28.308 10.1203 0 
28.5787 10.71 0 
27.904 9.25 0 
28.7893 11.1481 0 
28.424 10.4266 0 
27.7528 8.90909 0 
28.2807 10.1502 0 
28.6758 10.9775 0 
27.375 8 0 
28.7383 11.1481 0 
28.1619 10 0 
28.5649 10.8438 0 
28.2425 10.1921 0 
28.6096 10.9775 0 
28.1444 10.0196 0 
28.298 10.3489 0 
28.4605 10.71 0 
26.7 6 0 
27.9315 9.59091 0 
28.3503 10.5042 0 
28.6676 11.1481 0 
28.1187 10.0485 0 
28.2042 10.2339 0 
28.5207 10.9775 0 
28.0813 10.0905 0 
28.6814 11.3186 0 
27.3818 8.45455 0 
28.6679 11.3186 0 
28.1516 10.2914 0 
28.5703 11.1481 0 
28.6544 11.3186 0 
28.6358 11.3186 0 
27.5109 8.90909 0 
28.3072 10.71 0 
28.6173 11.3186 0 
28.2524 10.6071 0 
28.4322 10.9775 0 
28.028 10.1502 0 
28.5915 11.3186 0 
28.0989 10.3489 0 
28.33 10.8438 0 
28.5658 11.3186 0 
28.153 10.5042 0 
27.9061 10 0 
27.8975 10.0098 0 
28.5303 11.3186 0 
28.4384 11.1481 0 
27.7002 9.59091 0 
27.889 10.0196 0 
27.8765 10.0341 0 
28.4949 11.3186 0 
28.3154 10.9775 0 
27.9532 10.2339 0 
27.8639 10.0485 0 
28.0276 10.4266 0 
28.1544 10.71 0 
27.8457 10.0695 0 
27.4909 9.25 0 
28.4463 11.3186 0 
27 8 0 
27.8275 10.0905 0 
28.3979 11.3186 0 
27.8015 10.1203 0 
27.6542 9.79545 0 
25.675 2 0 
28.1991 10.9775 0 
27.2691 8.90909 0 
27.9563 10.5042 0 
28.4682 11.5318 0 
28.2625 11.1481 0 
27.7755 10.1502 0 
28.3322 11.3186 0 
27.8502 10.3489 0 
28.4401 11.5318 0 
25.875 4 0 
27.7391 10.1921 0 
28.4019 11.5318 0 
28.0268 10.8438 0 
28.2668 11.3186 0 
27.9602 10.71 0 
28.3498 11.5318 0 
27.4223 9.59091 0 
27.7026 10.2339 0 
27.5927 10 0 
28.0486 10.9775 0 
27.8616 10.6071 0 
27.5762 10.0196 0 
28.1794 11.3186 0 
28.2786 11.5318 0 
27.5519 10.0485 0 
27.6524 10.2914 0 
28.0319 11.1481 0 
27.7108 10.5042 0 
27.5167 10.0905 0 
27.0169 8.90909 0 
28.0924 11.3186 0 
27.6021 10.3489 0 
27.8988 10.9775 0 
28.1818 11.5318 0 
27.7667 10.71 0 
26.625 8 0 
28.255 11.745 0 
27.4664 10.1502 0 
28.2402 11.745 0 
28.2256 11.745 0 
28.2059 11.745 0 
27.978 11.3186 0 
26.7234 8.45455 0 
27.0259 9.25 0 
27.5342 10.4266 0 
28.1863 11.745 0 
27.1442 9.59091 0 
28.0516 11.5318 0 
28.1598 11.745 0 
27.3959 10.2339 0 
28.1334 11.745 0 
27.2793 10 0 
27.2714 10.0098 0 
27.2635 10.0196 0 
27.7086 10.9775 0 
27.6431 10.8438 0 
28.0975 11.745 0 
27.8643 11.3186 0 
27.4661 10.5042 0 
27.2518 10.0341 0 
27.2401 10.0485 0 
28.0617 11.745 0 
26.7648 8.90909 0 
27.5255 10.71 0 
27.7353 11.1481 0 
27.2231 10.0695 0 
28.0133 11.745 0 
27.2061 10.0905 0 
27.8791 11.5318 0 
27.2986 10.3489 0 
27.1818 10.1203 0 
27.9651 11.745 0 
27.3758 10.6071 0 
27.0077 9.79545 0 
27.7174 11.3186 0 
27.1576 10.1502 0 
25 0 0 
27.5193 10.9775 0 
27.9003 11.745 0 
27.1236 10.1921 0 
26.25 8 0 
27.9939 12.0061 0 
25.65 6 0 
27.8359 11.745 0 
26.8136 9.59091 0 
27.0896 10.2339 0 
27.9626 12.0061 0 
27.2853 10.71 0 
25.2 4 0 
27.5713 11.3186 0 
27.9218 12.0061 0 
26.4998 8.90909 0 
27.167 10.5042 0 
27.6541 11.5318 0 
27.0427 10.2914 0 
27.7503 11.745 0 
26.9033 10 0 
27.8677 12.0061 0 
26.8882 10.0196 0 
26.8659 10.0485 0 
26.9958 10.3489 0 
27.2836 10.9775 0 
27.6652 11.745 0 
27.3609 11.1481 0 
27.7955 12.0061 0 
26.499 9.25 0 
[...]
POINT_DATA 1909
SCALARS phi float 1
LOOKUP_TABLE default
VECTORS Displacement float
0 0 0
0 0 0
0 -0.000577514 0
0 0 0
0 -0.000786299 0
0 0 0
0 -0.000659067 0
0 0 0
0 0 0
0 -0.000232168 0
0.00170967 -0.000525998 0
0 0 0
0 0.000474815 0
0.0033505 -0.00032068 0
0 0 0
0.00229465 -0.000519203 0
0 0.00142473 0
0 0 0
0.00448521 0.0007557 0
0.00293265 -0.000527887 0
0 0 0
0.00515424 0.00244054 0
0 0 0
0.0036102 -0.000564056 0
0 0 0
0.00689012 -0.000394511 0
0.00429035 -0.000627426 0
0.00819793 -4.66806e-06 0
0 0 0
0.00737794 -0.000429157 0
0.00918914 0.000539447 0
0.00990355 0.00120324 0
0.00785236 -0.000471345 0
0.0104068 0.00193448 0
0 0 0
0.00832133 -0.000538594 0
0.0107246 0.00271134 0
0.00493276 -0.00071378 0
0.00877396 -0.000614664 0
0.0108962 0.00349309 0
0 0 0
0.00920205 -0.000705363 0
0.0119023 0.00019271 0
0.00960762 -0.000804499 0
0.0132015 0.00124607 0
0.00550187 -0.000819069 0
0 0 0
0.0128193 -0.000191255 0
0.0138638 0.0025141 0
0.00998203 -0.000913701 0
0.0138881 0.00382723 0
0.0103278 -0.00103075 0
0 0 0
0.0135803 -0.000573481 0
0.0106406 -0.00115564 0
0.00596797 -0.000940997 0
0.0142211 -0.000976889 0
0.0109198 -0.00128847 0
0 0 0
0.016667 -0.000131325 0
0.01713 0.000164127 0
0.0111653 -0.0014277 0
0.0169617 -0.000397681 0
0.0175772 0.000506716 0
0.0147464 -0.00140721 0
0.0178454 0.000833345 0
0.0177956 0.00028055 0
0.0180556 0.00122007 0
0.0181254 0.00110126 0
0.0172188 -0.000663721 0
0.0181128 0.000487016 0
0.0180987 0.0014945 0
0.0181885 0.000995157 0
0.0179849 5.42113e-05 0
0.0181671 0.00135434 0
0.0176717 -0.000389101 0
0.01825 0.000888162 0
0.01801 0.00180356 0
0.0182541 0.00121021 0
0.0180358 0.00178609 0
0.0195017 0.00259124 0
0.018308 0.000791342 0
0.0180653 0.00176509 0
0.0202555 0.00289938 0
0.0193427 0.00243766 0
0.0181093 0.0017244 0
0.0201368 0.0027989 0
0.0203646 0.00283888 0
0.020013 0.00269431 0
0.0181553 0.00168299 0
0.0198396 0.0025507 0
0.0203616 0.00276317 0
0.0191706 0.00221709 0
0.0202604 0.00268588 0
0.0183621 0.00105758 0
0.0183707 0.000694203 0
0.0182228 0.00161722 0
0.0203527 0.00270249 0
0.0196968 0.00242124 0
0.0203409 0.00264714 0
0.0203745 0.00267898 0
0.0182901 0.00155551 0
0.0200535 0.00248469 0
0.0113732 -0.00157587 0
0.019538 0.00224967 0
0.0203076 0.00257186 0
0.0190393 0.00195029 0
0.0203603 0.00257496 0
0.0202505 0.00248796 0
0.0203734 0.00259616 0
0.019423 0.00210139 0
0.00630464 -0.00107871 0
0.0183834 0.00146489 0
0.0203665 0.00254521 0
0.0184321 0.000605901 0
0.0181603 -0.000161263 0
0 0 0
0.0201541 0.0023577 0
0.0203601 0.00249446 0
0.0197818 0.00219122 0
0.0183414 0.000177878 0
0.0203279 0.00242179 0
0.018496 0.000896721 0
0.0193091 0.00190969 0
0.020349 0.00241816 0
0.0184734 0.00138335 0
0.0203838 0.00248524 0
0.0200394 0.00222486 0
0.0203406 0.00234412 0
0.0189832 0.00164939 0
0.0203683 0.00238216 0
0.0192407 0.00174978 0
0.020221 0.00219486 0
0.0198893 0.00203809 0
0.0203222 0.00224043 0
0.0185032 0.000514027 0
0.0203962 0.00237398 0
0.0185916 0.00127393 0
0.01952 0.00182518 0
0.020388 0.00232293 0
0.0203481 0.00223652 0
0.0202966 0.00213846 0
0.02038 0.00227282 0
0.0197573 0.00186765 0
0.0174636 -0.000931096 0
0.0191863 0.00155062 0
0.0203687 0.00220086 0
0.0202426 0.00199807 0
0.018702 0.00117555 0
0.0203576 0.00213124 0
0.020006 0.00188005 0
0.0204196 0.00222357 0
0.0203233 0.00204059 0
0.0190077 0.00132793 0
0.0186597 0.000724143 0
0.0185744 0.000427841 0
0.019617 0.00164612 0
0.0203432 0.00203341 0
0.0191673 0.00138431 0
0.0204041 0.0021265 0
0.0201652 0.00185647 0
0.0193487 0.00142752 0
0.0203315 0.00194075 0
0.0203828 0.00199085 0
0.0188389 0.00105248 0
0.0204453 0.00207892 0
0.0195202 0.00145747 0
0.0202645 0.00178144 0
0.020438 0.00203196 0
0.0200509 0.00166286 0
0.0203151 0.00181413 0
0.0204309 0.00198614 0
0.0183228 -0.00036619 0
0.019167 0.00118542 0
0.0197467 0.00148136 0
0.0186589 0.000333637 0
0.0204209 0.0019204 0
0.020355 0.00180823 0
0.0202995 0.0016939 0
0.0204114 0.00185659 0
0.0199341 0.00148128 0
0.018962 0.000938819 0
0.0194408 0.00123202 0
0.0191014 0.000995958 0
0.020398 0.00176727 0
0.0204855 0.00189006 0
0.0185672 -0.000100018 0
0.0191927 0.0010199 0
0.0202658 0.00153569 0
0.0203848 0.00168065 0
0.0188563 0.00053283 0
0.0201133 0.00144488 0
0.0204721 0.00180241 0
0.0203239 0.00157084 0
0.0193032 0.00103769 0
0.0187441 0.000242395 0
0.0198041 0.00125582 0
0.0194103 0.00105066 0
0.020367 0.0015625 0
0.0204534 0.00167925 0
0.0202165 0.00138592 0
0.0191083 0.000807157 0
0.019566 0.00106436 0
0.0205289 0.00171076 0
0.0203508 0.00145162 0
0.0205228 0.00166854 0
0.0192471 0.000839135 0
0.0204287 0.00151128 0
0.0205168 0.0016269 0
0.0197173 0.00107114 0
0.0205081 0.00156727 0
0.0202847 0.001287 0
0.0201408 0.00120364 0
0.0203326 0.00131042 0
0.0204995 0.0015089 0
0.0194179 0.000855547 0
0.0188451 0.000137198 0
0.0199076 0.00106543 0
0.0192364 0.000679681 0
0.0184801 -0.000566117 0
0.0204875 0.00142761 0
0.0203993 0.00129849 0
0.0192817 0.000683961 0
0.0181062 -0.000914525 0
0.0203218 0.00118888 0
0.0204764 0.00135061 0
0.0193291 0.000688613 0
0.0205839 0.00147732 0
0.0200618 0.00104356 0
0.0196605 0.00086445 0
0.0176799 -0.00120368 0
0.0193943 0.000691694 0
0.0205737 0.00139887 0
0.0204626 0.0012492 0
0.0190889 0.000308974 0
0.019462 0.000694909 0
0.0189465 3.23355e-05 0
0.0203071 0.00104765 0
0.0205603 0.00129087 0
0.020452 0.00115938 0
0.0202058 0.000990072 0
0.0195601 0.000696872 0
0.0203752 0.00106573 0
0.0193837 0.000531731 0
0.0199832 0.000852894 0
0.0187973 -0.000374648 0
0.0196593 0.000697386 0
0.0205446 0.00115271 0
0.0204417 0.00104938 0
0.0206478 0.00126072 0
0.0194483 0.000526623 0
0.0151516 -0.00186599 0
0.0202915 0.000924039 0
0.0206431 0.00122427 0
0.0206386 0.00118953 0
0.0198018 0.00069505 0
0.0206326 0.00114066 0
0.0204363 0.000955475 0
0.0195499 0.000519663 0
0.0206275 0.00109551 0
0.0205308 0.000994163 0
0.0190648 -9.40026e-05 0
0.0199402 0.000687213 0
0.0186313 -0.000763598 0
0.0206217 0.00103547 0
0.0203675 0.000828157 0
0.011546 -0.00172875 0
0.0195106 0.000380791 0
0.020267 0.000770916 0
0.0197039 0.00050839 0
0.0206174 0.000981617 0
0.0195402 0.000377625 0
0.0204351 0.000841609 0
0.0195697 0.000374185 0
0.0201078 0.000663003 0
0.0206147 0.000913555 0
0.0196126 0.000368557 0
0.0207428 0.00100887 0
0.0205259 0.000822018 0
0.0196554 0.000362382 0
0.0207387 0.000953525 0
0.0206134 0.000851564 0
0.0204364 0.000735946 0
0.0193549 2.65208e-05 0
0.019931 0.000486888 0
0.0202379 0.000622986 0
0.0197175 0.000352348 0
0.0191809 -0.000222637 0
0.0207353 0.000883907 0
0.0206152 0.000773924 0
0.019779 0.000341161 0
0.0196567 0.000199919 0
0.0207341 0.000798356 0
0.0204398 0.000600399 0
0.0198714 0.000326518 0
0.020618 0.000699725 0
0.0203587 0.000549203 0
0.0178785 -0.0014792 0
0.0197083 0.000191246 0
0.0205317 0.000618264 0
0.0190299 -0.000666426 0
0.0208407 0.0008044 0
0.018777 -0.000965664 0
0.0202182 0.000433424 0
0.0199648 0.000311005 0
0.0208412 0.000784694 0
0.0197844 0.000176913 0
0.0207368 0.000691326 0
0.0208418 0.000765791 0
0.0206236 0.000602462 0
0.0208433 0.000739209 0
0.0193133 -0.000381949 0
0.020445 0.000468424 0
0.0208449 0.000713457 0
0.0200958 0.000287374 0
0.0198935 0.000152907 0
0.0208474 0.000677733 0
0.0206305 0.000507567 0
0.0208501 0.000642612 0
0.0197871 1.21078e-05 0
0.0207455 0.000552924 0
0.0198108 6.94167e-06 0
0.0202205 0.000258658 0
0.0198345 1.60853e-06 0
0.0208537 0.000594216 0
0.0198691 -6.57302e-06 0
0.020047 0.000113346 0
0.0205497 0.000360981 0
0.0204524 0.000299231 0
0.0208576 0.000546342 0
0.0199034 -1.51288e-05 0
0.0206418 0.000382185 0
0.0209982 0.000607396 0
0.0194389 -0.000545639 0
0.0199527 -2.8219e-05 0
0.0203569 0.000203085 0
0.0209992 0.000574024 0
0.0196451 -0.000347661 0
0.0208633 0.00048055 0
0.0189142 -0.00117024 0
0.0200014 -4.20801e-05 0
0.0184643 -0.00144753 0
0.0207624 0.000370286 0
0.0210012 0.00052737 0
0.0208694 0.000415462 0
0.0206552 0.000260209 0
0.0200699 -6.29041e-05 0
0.020257 4.81633e-05 0
0.0204638 0.000135952 0
0.0210048 0.000461891 0
0.0199339 -0.000231305 0
0.0201373 -8.53396e-05 0
0.0192589 -0.000991217 0
0.0208787 0.000327089 0
0.0199757 -0.000243747 0
0.0180503 -0.00176073 0
0.0210115 0.00037046 0
0.0202295 -0.000119605 0
0.0200369 -0.000263213 0
0.0211346 0.000428717 0
0.0195773 -0.000749894 0
0.0206749 0.000102859 0
0.0205851 4.06919e-05 0
0.0208887 0.000239864 0
0.0211353 0.000412983 0
0.021136 0.00039725 0
0.0207908 0.00013294 0
0.0211372 0.000374853 0
0.020124 -0.000293752 0
0.020318 -0.000157252 0
0.0204925 -7.11009e-05 0
0.0211384 0.000352451 0
0.0210227 0.000244624 0
0.0190438 -0.00138351 0
0 0 0
0.0211404 0.000320683 0
0.020903 0.000123624 0
0.0211426 0.000288964 0
0.0206967 -5.14128e-05 0
0.0200625 -0.00048263 0
0.0116777 -0.00189263 0
0.0204303 -0.0002144 0
0.0202438 -0.000342111 0
0.0200815 -0.000489723 0
0.0211458 0.000244385 0
0.0201003 -0.00049695 0
0.0201278 -0.000507846 0
0.0211493 0.000199895 0
0.0209176 8.61018e-06 0
0.0201551 -0.000519029 0
0.0197027 -0.000959577 0
0.0210403 7.41506e-05 0
0.0205312 -0.000276152 0
0.0201941 -0.000535769 0
0.0211543 0.000138117 0
0.0203995 -0.000419142 0
0.0202326 -0.000553106 0
0.0212882 0.000212245 0
0.019935 -0.000847442 0
0.0208326 -0.000172174 0
0.0207275 -0.000250746 0
0.0211597 7.63981e-05 0
0.0212893 0.000180032 0
0.0202863 -0.000578805 0
0.0209375 -0.000143112 0
0.0194753 -0.00136244 0
0.0212911 0.00013486 0
0.0206506 -0.000362807 0
0.0191612 -0.00160142 0
0.0203385 -0.000605652 0
0.0211673 -8.11995e-06 0
0.0182015 -0.00204729 0
0.021294 7.13147e-05 0
0.0202012 -0.000804419 0
0.0210656 -0.000154367 0
0.0204093 -0.000644988 0
0.0211751 -9.2813e-05 0
0.020234 -0.000820375 0
0.0205875 -0.000539213 0
0.0209568 -0.000295147 0
0.0154298 -0.00235382 0
0.0198352 -0.00121948 0
0.0207595 -0.000451901 0
0.0212987 -1.77815e-05 0
0.0202818 -0.000844679 0
0.0204769 -0.000686108 0
0.0211857 -0.000207303 0
0.0203494 -0.000881489 0
0.0214052 -4.67455e-06 0
0.0187501 -0.00199902 0
0.0214057 -2.14861e-05 0
0.0205646 -0.0007453 0
0.0213062 -0.000141825 0
0.0214063 -3.82187e-05 0
0.0214072 -6.1575e-05 0
0.0192687 -0.00183066 0
0.0209825 -0.000495663 0
0.021408 -8.48792e-05 0
0.0208902 -0.000573557 0
0.0211962 -0.0003226 0
0.0204418 -0.00093696 0
0.0214094 -0.000117507 0
0.0206475 -0.000806671 0
0.0210994 -0.000460308 0
0.0214107 -0.000150153 0
0.0208042 -0.000714994 0
0.0203171 -0.00113046 0
0.0203319 -0.00113904 0
0.0214127 -0.000195719 0
0.0213173 -0.000313025 0
0.0199492 -0.00148417 0
0.0203466 -0.00114769 0
0.020368 -0.00116061 0
0.0214147 -0.000241426 0
0.02121 -0.000476716 0
0.0205636 -0.00101988 0
0.0203892 -0.00117371 0
0.0207522 -0.000892626 0
0.0210078 -0.000699488 0
0.0204195 -0.00119299 0
0.0196686 -0.00179168 0
0.0214176 -0.000304761 0
0.0183259 -0.00233961 0
0.0204494 -0.00121262 0
0.0214206 -0.000368444 0
0.0204912 -0.00124117 0
0.0201938 -0.00149142 0
0.00648609 -0.00123097 0
0.0212234 -0.000632712 0
0.0193613 -0.00206459 0
0.020849 -0.000982065 0
0.021509 -0.000281982 0
0.0213329 -0.000547045 0
0.0205321 -0.00127034 0
0.0214247 -0.000455774 0
0.0207179 -0.00114198 0
0.0215099 -0.000318658 0
0.0117718 -0.00205822 0
0.0205877 -0.00131222 0
0.0215112 -0.000368726 0
0.0211418 -0.00086965 0
0.0214289 -0.000543772 0
0.0210403 -0.00096484 0
0.0215131 -0.000437874 0
0.0200627 -0.00180696 0
0.0206417 -0.00135523 0
0.0204343 -0.00153179 0
0.0212404 -0.000838501 0
0.0209661 -0.00110539 0
0.0204599 -0.00155003 0
0.0214344 -0.000662933 0
0.0215159 -0.000533693 0
0.0204973 -0.00157743 0
0.0207131 -0.00141619 0
0.0213529 -0.000863344 0
0.0209021 -0.00131947 0
0.0205504 -0.00161816 0
0.0194424 -0.00231186 0
0.0214398 -0.000783206 0
0.0207813 -0.00147922 0
0.0212566 -0.00104722 0
0.0215198 -0.000666112 0
0.0210712 -0.00123379 0
0.0184286 -0.00263886 0
0.0215664 -0.00057264 0
0.0206236 -0.00167814 0
0.0215668 -0.000592888 0
0.0215672 -0.000613058 0
0.0215678 -0.000640186 0
0.0214466 -0.000943681 0
0.018952 -0.0025762 0
0.0198272 -0.00228893 0
0.020868 -0.00156733 0
0.0215684 -0.000667258 0
0.0201534 -0.00213289 0
0.021525 -0.000847813 0
0.0215692 -0.00070416 0
0.0207211 -0.0017658 0
0.02157 -0.000741046 0
0.0205261 -0.00193464 0
0.0205377 -0.00194419 0
0.0205492 -0.0019538 0
0.021276 -0.00131701 0
0.0211911 -0.00140783 0
0.0215711 -0.000791556 0
0.021453 -0.00110578 0
0.0209489 -0.00165874 0
0.020566 -0.00196807 0
0.0205827 -0.00198246 0
0.0215721 -0.000842129 0
0.0195073 -0.00256273 0
0.0211065 -0.00157379 0
0.0213759 -0.00128429 0
0.0206066 -0.00200353 0
0.0215734 -0.00091123 0
0.0206301 -0.00202485 0
0.0215314 -0.0010945 0
0.0208452 -0.00189296 0
0.0206631 -0.00205565 0
0.0215747 -0.000980527 0
0.0210472 -0.00178462 0
0.0203935 -0.00228696 0
0.0214605 -0.00131836 0
0.0206954 -0.00208695 0
0 0 0
0.0212929 -0.00158961 0
0.0215763 -0.00107453 0
0.0207396 -0.00213158 0
0.0185037 -0.00294276 0
0.0215801 -0.000948491 0
0.0155743 -0.00286945 0
0.0215777 -0.00116893 0
0.0202338 -0.00252279 0
0.0207824 -0.00217716 0
0.021581 -0.000994164 0
0.0211357 -0.00191566 0
0.0118218 -0.0022379 0
0.0214667 -0.0015329 0
0.021582 -0.00105406 0
0.0195594 -0.00282892 0
0.0209948 -0.00207584 0
0.021538 -0.00142477 0
0.0208391 -0.00224133 0
0.0215792 -0.00129558 0
0.0206064 -0.00241897 0
0.0215833 -0.00113409 0
0.0206266 -0.00243896 0
0.020656 -0.00246881 0
0.0208932 -0.00230718 0
0.0213099 -0.00193331 0
0.0215804 -0.00142287 0
0.0213976 -0.00183205 0
0.0215847 -0.00124207 0
0.0199378 -0.0028625 0
0.0206976 -0.00251286 0
0.0212362 -0.00209319 0
0.0214726 -0.00180854 0
0.0209622 -0.00239867 0
0.0215861 -0.00138808 0
0.0215814 -0.00159128 0
0.0207549 -0.00257715 0
0.0211614 -0.0023362 0
0.0195948 -0.00309723 0
0.019065 -0.00317636 0
0.0202862 -0.00291388 0
0.0215419 -0.00185921 0
0.0210265 -0.00249306 0
0.0185552 -0.00325257 0
0.0215393 -0.0013468 0
0.020831 -0.0026701 0
0.0215815 -0.00176056 0
0.0215396 -0.00137263 0
0.021587 -0.00158474 0
0.0213209 -0.00227846 0
0.02154 -0.00139834 0
0.0214756 -0.00208591 0
0.0215405 -0.00143143 0
0.0215409 -0.0014644 0
0.0215413 -0.00150777 0
0.0206542 -0.00290251 0
0.0211046 -0.00262241 0
0.0206632 -0.00291288 0
0.0206721 -0.00292329 0
0.0215417 -0.00155103 0
0.0206852 -0.00293871 0
0.0209279 -0.00280332 0
0.0215802 -0.00198077 0
0.0206981 -0.00295424 0
0.0215422 -0.00160861 0
0.0207166 -0.0029769 0
0.0215864 -0.00184736 0
0.0215425 -0.00166611 0
0.0207349 -0.00299977 0
0.0207604 -0.00303269 0
0.0196155 -0.00338301 0
0.0211744 -0.00275644 0
0.0215428 -0.00174294 0
0.0214065 -0.00252512 0
0.0214747 -0.00243412 0
0.0207854 -0.003066 0
0.0215773 -0.00220189 0
0.0215429 -0.00181974 0
0.0213252 -0.0027024 0
0.0204954 -0.00323794 0
0.0208195 -0.00311329 0
0.0215372 -0.00241834 0
0.0210441 -0.00299265 0
0.0215426 -0.00192208 0
0.0203154 -0.00337235 0
0.0208524 -0.00316134 0
0.018579 -0.00356537 0
0.0215821 -0.00219363 0
0.0118314 -0.00241386 0
0.021542 -0.00202446 0
0.021253 -0.00293735 0
0.0199838 -0.00351908 0
0.0208959 -0.00322862 0
0.0215709 -0.00248402 0
0.0214224 -0.00185367 0
0.0214679 -0.00278288 0
0.0215406 -0.00215984 0
0.0214231 -0.00191288 0
0.0209374 -0.00329729 0
0.0196196 -0.00366951 0
0.0214239 -0.00198694 0
0.0206714 -0.0034692 0
0.020687 -0.00349063 0
0.0215385 -0.00229531 0
0.0213181 -0.00312544 0
0.0211718 -0.00325935 0
0.0214245 -0.00208191 0
0.0207096 -0.00352253 0
0.0209899 -0.00339218 0
0.0215612 -0.00276662 0
0.0207415 -0.00356939 0
0.0190909 -0.00379322 0
0.0215699 -0.00264271 0
0.0214248 -0.00220573 0
0.0215348 -0.00247236 0
0.0210385 -0.0034895 0
0.0207853 -0.00363738 0
0.0155805 -0.0034095 0
0.021451 -0.00320987 0
0.0203102 -0.00382957 0
0.0214242 -0.00236844 0
0.021512 -0.00311957 0
0.0185787 -0.00388195 0
0.0215298 -0.00264948 0
0.0213815 -0.00337503 0
0.0208431 -0.00373493 0
0.0210969 -0.00362212 0
0.0196062 -0.00397567 0
0.0215443 -0.00311938 0
0.0214217 -0.00258244 0
0 0 0
0.0215215 -0.00287753 0
0.0212933 -0.00363099 0
0.0212426 -0.00239089 0
0.020916 -0.00387346 0
0.0211485 -0.00375881 0
0.021243 -0.00242483 0
0.0212433 -0.00245864 0
0.00648781 -0.0013933 0
0.0206472 -0.004031 0
0.0212436 -0.00250004 0
0.0215426 -0.00321338 0
0.0206541 -0.00404201 0
0.0206609 -0.00405305 0
0.0212438 -0.00254131 0
0.0214237 -0.003635 0
0.0206708 -0.00406939 0
0.0214156 -0.00286243 0
0.0215111 -0.00310539 0
0.021244 -0.00259325 0
0.0206807 -0.0040858 0
0.0215215 -0.00347136 0
0.0206948 -0.00410973 0
0.021244 -0.00264504 0
0.0207087 -0.00413381 0
0.0212051 -0.00394234 0
0.0212439 -0.00271146 0
0.021002 -0.00406837 0
0.020728 -0.0041684 0
0.0199438 -0.004263 0
0.0117939 -0.00260758 0
0.0212436 -0.00277772 0
0.0195759 -0.00428144 0
0.0207469 -0.0042033 0
0.0185519 -0.00419969 0
0.0212429 -0.00286363 0
0.0207725 -0.00425269 0
0.0214948 -0.00339356 0
0.0202665 -0.00435383 0
0.0204488 -0.00433865 0
0.0212419 -0.00294934 0
0.0207972 -0.0043027 0
0.0214028 -0.00322498 0
0.0212501 -0.00413221 0
0.0212401 -0.00306083 0
0.0214472 -0.00397349 0
0.0208295 -0.00437243 0
0.0214853 -0.00390027 0
0.0190339 -0.00442081 0
0.0210938 -0.00434 0
0.0213764 -0.0041418 0
0.0212378 -0.00317206 0
0.0208601 -0.00444331 0
0.0214749 -0.00368086 0
0.0214885 -0.00392125 0
0.021234 -0.00331632 0
0.0208984 -0.00454077 0
0.0212908 -0.00438305 0
0.0195247 -0.00460875 0
0.020954 -0.00305926 0
0.0213781 -0.00368763 0
0.0205716 -0.00467096 0
0.0212292 -0.00346019 0
0.0209547 -0.00313778 0
0.0205836 -0.00469344 0
0.0209335 -0.00464025 0
0.0206008 -0.00472683 0
0.0185019 -0.0045192 0
0.0209552 -0.00323127 0
0.021445 -0.00403682 0
0.0214396 -0.00432602 0
0.020625 -0.00477573 0
0.0212218 -0.00364528 0
0.0209552 -0.00334573 0
0.0209747 -0.00477509 0
0.0211751 -0.00471456 0
0.0206579 -0.00484637 0
0.0201825 -0.0048734 0
0.0213129 -0.00464317 0
0.0209543 -0.00348895 0
0.0212129 -0.00382971 0
0.020701 -0.00494717 0
0.02101 -0.00491334 0
0.0214093 -0.00439047 0
0.0209519 -0.00367069 0
0.0194558 -0.00493464 0
0.0213336 -0.00426707 0
0.0211994 -0.00406407 0
0.0207544 -0.00508933 0
0.0117143 -0.00278875 0
0.0154465 -0.00396755 0
0.0213718 -0.0048316 0
0.021047 -0.00509798 0
0.0197929 -0.00509416 0
0.0209464 -0.00390282 0
0.0213896 -0.00477533 0
0.0213151 -0.00498049 0
0.0184279 -0.00483805 0
0.0211834 -0.00429727 0
0.0208158 -0.00528766 0
0.0213577 -0.00481874 0
0.0204471 -0.00530006 0
0.0205985 -0.00376506 0
0.0204523 -0.0053115 0
0.0204575 -0.00532296 0
0.0210741 -0.00528801 0
0.018898 -0.00505445 0
0.0205988 -0.0038103 0
0.021217 -0.00522438 0
0.0204651 -0.00533991 0
0.0209359 -0.00419911 0
0.0204725 -0.00535691 0
0.020599 -0.00385542 0
0.0204833 -0.00538167 0
0.0205991 -0.00390798 0
0.0204938 -0.00540655 0
0.02116 -0.00458896 0
0.0205991 -0.0039604 0
0.0205084 -0.00544222 0
0.0205988 -0.00402326 0
0.0205226 -0.00547814 0
0.0193617 -0.00528325 0
0.0205984 -0.00408595 0
0.0200444 -0.00545449 0
0.0212896 -0.0053304 0
0.0205418 -0.00552884 0
0.0212576 -0.00497666 0
0.0205977 -0.00416292 0
0.0208779 -0.00556141 0
0.0205602 -0.00558003 0
0.0210942 -0.00553776 0
0.0209166 -0.00457481 0
0.0205967 -0.00423967 0
0.0211327 -0.00487851 0
0.0212972 -0.00524226 0
0.0202021 -0.00556871 0
0 0 0
0.020584 -0.0056512 0
0.0205951 -0.00433551 0
0.018332 -0.00515689 0
0.0206062 -0.00572328 0
0.020593 -0.00443105 0
0.0205898 -0.00455151 0
0.0206337 -0.00582201 0
0.0210983 -0.00579547 0
0.0210938 -0.00523395 0
0.020586 -0.00467151 0
0.0208832 -0.00504558 0
0.0206583 -0.00592236 0
0.0209259 -0.00593506 0
0.0212221 -0.00577465 0
0.0192495 -0.00562903 0
0.0205802 -0.00482325 0
0.021213 -0.00574256 0
0.0211745 -0.00590675 0
0.0115839 -0.00299 0
0.0206864 -0.00605777 0
0.0202531 -0.00599512 0
0.0205733 -0.00497428 0
0.0202624 -0.00601819 0
0.0210492 -0.00558563 0
0.0202758 -0.00605241 0
0.0201069 -0.00461984 0
0.0210812 -0.0061281 0
0.0211338 -0.00582333 0
0.0202945 -0.00610241 0
0.0207093 -0.00619592 0
0.0205632 -0.00516461 0
0.0201075 -0.00472433 0
0.019862 -0.00602555 0
0.0182152 -0.00547316 0
0.0203197 -0.00617442 0
0.0201076 -0.00484304 0
0.0186867 -0.00569007 0
0.0208274 -0.00562589 0
0.0195055 -0.00600513 0
0.0205514 -0.00535381 0
0.0203523 -0.00627675 0
0.0207315 -0.00637951 0
0.0201068 -0.00498157 0
0.0211162 -0.00623451 0
0.0209336 -0.00643844 0