# vtk DataFile Version 3.0
File generated from DClib
ASCII

DATASET UNSTRUCTURED_GRID
POINTS 1909 float
50 0 0 
48.75 0 0 
50 1.66667 0 
47.5 0 0 
50 3.33333 0 
46.25 0 0 
50 5 0 
45 0 0 
43.75 0 0 
50 6.66667 0 
43 2 0 
42.5 0 0 
50 8.33333 0 
43 4.66667 0 
41.25 0 0 
41.075 2 0 
50 10 0 
40 0 0 
43 7.33333 0 
39.15 2 0 
38.75 0 0 
43 10 0 
37.5 0 0 
37.225 2 0 
36.25 0 0 
36 4 0 
35.3 2 0 
36 5 0 
35 0 0 
35.325 4 0 
36 6 0 
36 7 0 
34.65 4 0 
36 8 0 
33.75 0 0 
33.975 4 0 
36 9 0 
33.375 2 0 
33.3 4 0 
36 10 0 
32.5 0 0 
32.625 4 0 
33 6 0 
31.95 4 0 
33 7.45455 0 
31.45 2 0 
31.25 0 0 
31.95 6 0 
33 8.79545 0 
31.275 4 0 
33 10 0 
30.6 4 0 
30 0 0 
30.9 6 0 
29.925 4 0 
29.525 2 0 
29.85 6 0 
29.25 4 0 
28.75 0 0 
30 8 0 
30 8.45455 0 
28.575 4 0 
29.625 8 0 
30 8.90909 0 
28.8 6 0 
30 9.25 0 
29.782 8.90909 0 
30 9.59091 0 
29.9487 9.59091 0 
29.25 8 0 
29.7462 9.25 0 
30 9.79545 0 
29.897 9.59091 0 
29.564 8.90909 0 
29.9547 9.79545 0 
29.3462 8.45455 0 
29.84 9.59091 0 
30 10 0 
29.8975 9.79545 0 
29.9882 10 0 
29.9902 10.0098 0 
29.7827 9.59091 0 
29.9765 10 0 
29.9804 10.0196 0 
29.9667 10.0098 0 
29.9591 10 0 
29.9686 10.0196 0 
29.9659 10.0341 0 
29.9569 10.0196 0 
29.9418 10 0 
29.9395 10.0196 0 
29.9515 10.0485 0 
29.932 10.0098 0 
29.9424 10.0341 0 
29.8241 9.79545 0 
29.7181 9.59091 0 
29.9166 10 0 
29.9397 10.0485 0 
29.9222 10.0196 0 
29.9279 10.0485 0 
29.9305 10.0695 0 
29.8914 10 0 
29.9077 10.0341 0 
27.9 4 0 
29.897 10.0196 0 
29.9106 10.0485 0 
29.8817 10.0098 0 
29.907 10.0695 0 
29.8933 10.0485 0 
29.9095 10.0905 0 
29.8719 10.0196 0 
27.6 2 0 
29.8556 10 0 
29.8978 10.0905 0 
29.6531 9.59091 0 
29.3437 8.90909 0 
27.5 0 0 
29.8681 10.0485 0 
29.886 10.0905 0 
29.8574 10.0341 0 
29.4839 9.25 0 
29.8723 10.0695 0 
29.7289 9.79545 0 
29.836 10.0196 0 
29.8687 10.0905 0 
29.8197 10 0 
29.8797 10.1203 0 
29.843 10.0485 0 
29.8513 10.0905 0 
29.81 10.0098 0 
29.8561 10.1203 0 
29.8002 10.0196 0 
29.8221 10.0695 0 
29.8072 10.0485 0 
29.8262 10.0905 0 
29.5782 9.59091 0 
29.8498 10.1502 0 
29.7695 10 0 
29.7858 10.0341 0 
29.838 10.1502 0 
29.8215 10.1203 0 
29.8011 10.0905 0 
29.8262 10.1502 0 
29.7714 10.0485 0 
28.875 8 0 
29.75 10.0196 0 
29.8089 10.1502 0 
29.7654 10.0905 0 
29.7193 10 0 
29.7916 10.1502 0 
29.7505 10.0695 0 
29.8079 10.1921 0 
29.7713 10.1203 0 
29.7096 10.0098 0 
29.6047 9.79545 0 
29.503 9.59091 0 
29.7213 10.0485 0 
29.7665 10.1502 0 
29.6999 10.0196 0 
29.7844 10.1921 0 
29.7296 10.0905 0 
29.6856 10.0341 0 
29.7414 10.1502 0 
29.7497 10.1921 0 
29.6503 10 0 
29.7661 10.2339 0 
29.6712 10.0485 0 
29.6999 10.1203 0 
29.7543 10.2339 0 
29.6796 10.0905 0 
29.7057 10.1502 0 
29.7425 10.2339 0 
29.1235 8.90909 0 
29.6309 10.0196 0 
29.6504 10.0695 0 
29.4146 9.59091 0 
29.7252 10.2339 0 
29.6996 10.1921 0 
29.6701 10.1502 0 
29.7079 10.2339 0 
29.6296 10.0905 0 
29.5813 10 0 
29.6023 10.0485 0 
29.5716 10.0098 0 
29.6828 10.2339 0 
29.7086 10.2914 0 
29.2101 9.25 0 
29.562 10.0196 0 
29.6201 10.1502 0 
29.6578 10.2339 0 
29.4428 9.79545 0 
29.5999 10.1203 0 
29.6849 10.2914 0 
29.6283 10.1921 0 
29.5477 10.0341 0 
29.3259 9.59091 0 
29.5608 10.0905 0 
29.5335 10.0485 0 
29.6221 10.2339 0 
29.6503 10.2914 0 
29.5702 10.1502 0 
29.4881 10 0 
29.5128 10.0695 0 
29.6511 10.3489 0 
29.5866 10.2339 0 
29.6392 10.3489 0 
29.4689 10.0196 0 
29.6002 10.2914 0 
29.6273 10.3489 0 
29.4921 10.0905 0 
29.61 10.3489 0 
29.5286 10.1921 0 
29.5016 10.1502 0 
29.5368 10.2339 0 
29.5926 10.3489 0 
29.4405 10.0485 0 
29.2199 9.59091 0 
29.4626 10.1203 0 
29.3949 10 0 
28.9 8.90909 0 
29.5676 10.3489 0 
29.5291 10.2914 0 
29.3853 10.0098 0 
28.6923 8.45455 0 
29.487 10.2339 0 
29.5426 10.3489 0 
29.3758 10.0196 0 
29.5734 10.4266 0 
29.4331 10.1502 0 
29.3993 10.0905 0 
28.5 8 0 
29.3617 10.0341 0 
29.5496 10.4266 0 
29.5071 10.3489 0 
29.2327 9.79545 0 
29.3475 10.0485 0 
29.1136 9.59091 0 
29.4187 10.2339 0 
29.5148 10.4266 0 
29.4716 10.3489 0 
29.3918 10.1921 0 
29.3271 10.0695 0 
29.4298 10.2914 0 
29.2714 10 0 
29.3406 10.1502 0 
28.9208 9.25 0 
29.3066 10.0905 0 
29.4648 10.4266 0 
29.422 10.3489 0 
29.4958 10.5042 0 
29.2524 10.0196 0 
27.75 6 0 
29.3504 10.2339 0 
29.4837 10.5042 0 
29.4718 10.5042 0 
29.2774 10.1203 0 
29.4543 10.5042 0 
29.3724 10.3489 0 
29.2244 10.0485 0 
29.4369 10.5042 0 
29.3938 10.4266 0 
28.9853 9.59091 0 
29.2481 10.1502 0 
28.6766 8.90909 0 
29.4119 10.5042 0 
29.2934 10.2914 0 
27.225 4 0 
29.148 10 0 
29.2582 10.2339 0 
29.1837 10.0905 0 
29.3869 10.5042 0 
29.1385 10.0098 0 
29.3044 10.3489 0 
29.1291 10.0196 0 
29.2072 10.1921 0 
29.3514 10.5042 0 
29.1152 10.0341 0 
29.3929 10.6071 0 
29.2949 10.4266 0 
29.1013 10.0485 0 
29.3686 10.6071 0 
29.316 10.5042 0 
29.2364 10.3489 0 
28.9623 9.79545 0 
29.1257 10.1502 0 
29.1662 10.2339 0 
29.0811 10.0695 0 
28.8566 9.59091 0 
29.3336 10.6071 0 
29.2666 10.5042 0 
29.0609 10.0905 0 
28.9875 10 0 
29.2835 10.6071 0 
29.1448 10.3489 0 
29.0321 10.1203 0 
29.2173 10.5042 0 
29.1098 10.2914 0 
28.125 8 0 
28.9688 10.0196 0 
29.1594 10.4266 0 
28.611 9.25 0 
29.29 10.71 0 
28.4486 8.90909 0 
29.0443 10.2339 0 
29.0033 10.1502 0 
29.2777 10.71 0 
28.9413 10.0485 0 
29.2128 10.6071 0 
29.2655 10.71 0 
29.1497 10.5042 0 
29.2478 10.71 0 
28.7003 9.59091 0 
29.0533 10.3489 0 
29.2303 10.71 0 
28.9629 10.1921 0 
28.9013 10.0905 0 
29.2051 10.71 0 
29.0822 10.5042 0 
29.1801 10.71 0 
28.827 10 0 
29.1144 10.6071 0 
28.8177 10.0098 0 
28.9225 10.2339 0 
28.8085 10.0196 0 
29.1447 10.71 0 
28.7949 10.0341 0 
28.8443 10.1502 0 
28.977 10.4266 0 
28.9322 10.3489 0 
29.1094 10.71 0 
28.7813 10.0485 0 
28.9912 10.5042 0 
29.1562 10.8438 0 
28.5436 9.59091 0 
28.7615 10.0695 0 
28.8669 10.2914 0 
29.1313 10.8438 0 
28.6184 9.79545 0 
29.0602 10.71 0 
28.2207 8.90909 0 
28.7418 10.0905 0 
28.0378 8.45455 0 
28.9798 10.6071 0 
29.0958 10.8438 0 
29.0112 10.71 0 
28.9005 10.5042 0 
28.7136 10.1203 0 
28.7644 10.2339 0 
28.8113 10.3489 0 
29.0454 10.8438 0 
28.6223 10 0 
28.6854 10.1502 0 
28.2746 9.25 0 
28.9441 10.71 0 
28.6042 10.0196 0 
27.75 8 0 
28.9747 10.8438 0 
28.6459 10.1921 0 
28.5773 10.0485 0 
29.0225 10.9775 0 
28.3532 9.59091 0 
28.7804 10.5042 0 
28.736 10.4266 0 
28.8772 10.71 0 
29.0097 10.9775 0 
28.9971 10.9775 0 
28.799 10.6071 0 
28.9791 10.9775 0 
28.5384 10.0905 0 
28.6064 10.2339 0 
28.6543 10.3489 0 
28.9611 10.9775 0 
28.8769 10.8438 0 
27.9867 8.90909 0 
26.25 0 0 
28.9358 10.9775 0 
28.7871 10.71 0 
28.9106 10.9775 0 
28.6607 10.5042 0 
28.4177 10 0 
26.55 4 0 
28.552 10.2914 0 
28.483 10.1502 0 
28.4087 10.0098 0 
28.8751 10.9775 0 
28.3998 10.0196 0 
28.3866 10.0341 0 
28.8399 10.9775 0 
28.6974 10.71 0 
28.3735 10.0485 0 
28.1625 9.59091 0 
28.7436 10.8438 0 
28.4976 10.3489 0 
28.3543 10.0695 0 
28.791 10.9775 0 
28.4052 10.2339 0 
28.3352 10.0905 0 
28.8519 11.1481 0 
28.1869 9.79545 0 
28.5607 10.6071 0 
28.5053 10.5042 0 
28.7423 10.9775 0 
28.8258 11.1481 0 
28.308 10.1203 0 
28.5787 10.71 0 
27.904 9.25 0 
28.7893 11.1481 0 
28.424 10.4266 0 
27.7528 8.90909 0 
28.2807 10.1502 0 
28.6758 10.9775 0 
27.375 8 0 
28.7383 11.1481 0 
28.1619 10 0 
28.5649 10.8438 0 
28.2425 10.1921 0 
28.6096 10.9775 0 
28.1444 10.0196 0 
28.298 10.3489 0 
28.4605 10.71 0 
26.7 6 0 
27.9315 9.59091 0 
28.3503 10.5042 0 
28.6676 11.1481 0 
28.1187 10.0485 0 
28.2042 10.2339 0 
28.5207 10.9775 0 
28.0813 10.0905 0 
28.6814 11.3186 0 
27.3818 8.45455 0 
28.6679 11.3186 0 
28.1516 10.2914 0 
28.5703 11.1481 0 
28.6544 11.3186 0 
28.6358 11.3186 0 
27.5109 8.90909 0 
28.3072 10.71 0 
28.6173 11.3186 0 
28.2524 10.6071 0 
28.4322 10.9775 0 
28.028 10.1502 0 
28.5915 11.3186 0 
28.0989 10.3489 0 
28.33 10.8438 0 
28.5658 11.3186 0 
28.153 10.5042 0 
27.9061 10 0 
27.8975 10.0098 0 
28.5303 11.3186 0 
28.4384 11.1481 0 
27.7002 9.59091 0 
27.889 10.0196 0 
27.8765 10.0341 0 
28.4949 11.3186 0 
28.3154 10.9775 0 
27.9532 10.2339 0 
27.8639 10.0485 0 
28.0276 10.4266 0 
28.1544 10.71 0 
27.8457 10.0695 0 
27.4909 9.25 0 
28.4463 11.3186 0 
27 8 0 
27.8275 10.0905 0 
28.3979 11.3186 0 
27.8015 10.1203 0 
27.6542 9.79545 0 
25.675 2 0 
28.1991 10.9775 0 
27.2691 8.90909 0 
27.9563 10.5042 0 
28.4682 11.5318 0 
28.2625 11.1481 0 
27.7755 10.1502 0 
28.3322 11.3186 0 
27.8502 10.3489 0 
28.4401 11.5318 0 
25.875 4 0 
27.7391 10.1921 0 
28.4019 11.5318 0 
28.0268 10.8438 0 
28.2668 11.3186 0 
27.9602 10.71 0 
28.3498 11.5318 0 
27.4223 9.59091 0 
27.7026 10.2339 0 
27.5927 10 0 
28.0486 10.9775 0 
27.8616 10.6071 0 
27.5762 10.0196 0 
28.1794 11.3186 0 
28.2786 11.5318 0 
27.5519 10.0485 0 
27.6524 10.2914 0 
28.0319 11.1481 0 
27.7108 10.5042 0 
27.5167 10.0905 0 
27.0169 8.90909 0 
28.0924 11.3186 0 
27.6021 10.3489 0 
27.8988 10.9775 0 
28.1818 11.5318 0 
27.7667 10.71 0 
26.625 8 0 
28.255 11.745 0 
27.4664 10.1502 0 
28.2402 11.745 0 
28.2256 11.745 0 
28.2059 11.745 0 
27.978 11.3186 0 
26.7234 8.45455 0 
27.0259 9.25 0 
27.5342 10.4266 0 
28.1863 11.745 0 
27.1442 9.59091 0 
28.0516 11.5318 0 
28.1598 11.745 0 
27.3959 10.2339 0 
28.1334 11.745 0 
27.2793 10 0 
27.2714 10.0098 0 
27.2635 10.0196 0 
27.7086 10.9775 0 
27.6431 10.8438 0 
28.0975 11.745 0 
27.8643 11.3186 0 
27.4661 10.5042 0 
27.2518 10.0341 0 
27.2401 10.0485 0 
28.0617 11.745 0 
26.7648 8.90909 0 
27.5255 10.71 0 
27.7353 11.1481 0 
27.2231 10.0695 0 
28.0133 11.745 0 
27.2061 10.0905 0 
27.8791 11.5318 0 
27.2986 10.3489 0 
27.1818 10.1203 0 
27.9651 11.745 0 
27.3758 10.6071 0 
27.0077 9.79545 0 
27.7174 11.3186 0 
27.1576 10.1502 0 
25 0 0 
27.5193 10.9775 0 
27.9003 11.745 0 
27.1236 10.1921 0 
26.25 8 0 
27.9939 12.0061 0 
25.65 6 0 
27.8359 11.745 0 
26.8136 9.59091 0 
27.0896 10.2339 0 
27.9626 12.0061 0 
27.2853 10.71 0 
25.2 4 0 
27.5713 11.3186 0 
27.9218 12.0061 0 
26.4998 8.90909 0 
27.167 10.5042 0 
27.6541 11.5318 0 
27.0427 10.2914 0 
27.7503 11.745 0 
26.9033 10 0 
27.8677 12.0061 0 
26.8882 10.0196 0 
26.8659 10.0485 0 
26.9958 10.3489 0 
27.2836 10.9775 0 
27.6652 11.745 0 
27.3609 11.1481 0 
27.7955 12.0061 0 
26.499 9.25 0 
[...]
POINT_DATA 1909
SCALARS phi float 1
LOOKUP_TABLE default
VECTORS Displacement float
0 0 0
0 0 0
0 -0.00260668 0
0 0 0
0 -0.00360543 0
0 0 0
0 -0.00311313 0
0 0 0
0 0 0
0 -0.00126749 0
0.00758594 -0.0022731 0
0 0 0
0 0.00181391 0
0.0145968 -0.00126782 0
0 0 0
0.0102583 -0.00223042 0
0 0.00567444 0
0 0 0
0.0193268 0.00340781 0
0.0131929 -0.00226595 0
0 0 0
0.0218183 0.0112131 0
0 0 0
0.0163291 -0.00243634 0
0 0 0
0.0309281 -0.00151255 0
0.0194915 -0.00274424 0
0.0365591 0.00032363 0
0 0 0
0.0331751 -0.00167253 0
0.0406414 0.00284756 0
0.0433022 0.0059613 0
0.0353792 -0.00187097 0
0.0447671 0.00924213 0
0 0 0
0.0375711 -0.00218902 0
0.0458968 0.0129366 0
0.0224759 -0.00317063 0
0.0397013 -0.00255364 0
0.0468518 0.0181537 0
0 0 0
0.0417236 -0.00299387 0
0.0535025 0.00145991 0
0.0436432 -0.00347928 0
0.0586923 0.00681161 0
0.025092 -0.00369098 0
0 0 0
0.0579371 -0.000321955 0
0.0611445 0.0139085 0
0.045415 -0.0040188 0
0.0610799 0.0287148 0
0.0470415 -0.00459828 0
0 0 0
0.0616673 -0.00218225 0
0.0485048 -0.00521802 0
0.0271816 -0.00428419 0
0.0648076 -0.0042073 0
0.0497906 -0.00587416 0
0 0 0
0.0759511 0.000467072 0
0.0781269 0.00207892 0
0.0509048 -0.00655732 0
0.0775026 -0.000890176 0
0.0802366 0.00400589 0
0.0673412 -0.0063889 0
0.0818227 0.00730244 0
0.0814564 0.00291206 0
0.0835707 0.0122814 0
0.0838121 0.011155 0
0.0788841 -0.00229446 0
0.0833224 0.00502375 0
0.0849207 0.0166282 0
0.0840672 0.0102151 0
0.0825731 0.00184275 0
0.0852979 0.0157117 0
0.0810712 -0.000687252 0
0.0843121 0.00922613 0
0.0862105 0.0229943 0
0.085772 0.0145218 0
0.0863717 0.0229859 0
0.12011 0.0416239 0
0.0845519 0.00834007 0
0.0865346 0.0228704 0
0.151512 0.0567528 0
0.116477 0.0392042 0
0.0867853 0.0227615 0
0.147532 0.0543508 0
0.154678 0.0554207 0
0.143606 0.0519025 0
0.0870425 0.0225769 0
0.137969 0.0488776 0
0.154831 0.0541173 0
0.111767 0.0361327 0
0.150478 0.0522979 0
0.0863836 0.0131298 0
0.084822 0.00748019 0
0.087416 0.0221808 0
0.154459 0.0533313 0
0.133114 0.0462276 0
0.154065 0.0526553 0
0.155956 0.0536917 0
0.0877896 0.0217562 0
0.143331 0.0487817 0
0.0518228 -0.00727862 0
0.12733 0.0427163 0
0.152846 0.0518358 0
0.107041 0.032349 0
0.155374 0.0524153 0
0.15089 0.0507004 0
0.155871 0.0528446 0
0.122524 0.0397292 0
0.0286197 -0.00493643 0
0.0882839 0.0208841 0
0.155665 0.0522279 0
0.0850848 0.00668978 0
0.0836167 0.000736648 0
0 0 0
0.147383 0.0485726 0
0.155418 0.0515997 0
0.133873 0.0434716 0
0.0847315 0.00325942 0
0.153722 0.0503024 0
0.0871446 0.0115665 0
0.117174 0.035821 0
0.155048 0.0505968 0
0.0887482 0.020032 0
0.155931 0.0518222 0
0.143277 0.0461936 0
0.154657 0.0495933 0
0.102778 0.0277613 0
0.155579 0.0505144 0
0.112899 0.0325811 0
0.14898 0.0465563 0
0.137407 0.0425218 0
0.153765 0.0481698 0
0.0854095 0.00590469 0
0.155446 0.0505146 0
0.0893198 0.0186682 0
0.122985 0.0363302 0
0.155291 0.0498475 0
0.154976 0.0485405 0
0.152499 0.0466151 0
0.155132 0.0491753 0
0.131785 0.0391013 0
0.0802113 -0.00371062 0
0.108482 0.0286103 0
0.154868 0.0481804 0
0.149845 0.0442989 0
0.0898158 0.0173763 0
0.154578 0.0471807 0
0.139914 0.0406973 0
0.154816 0.0486888 0
0.153687 0.0455759 0
0.0994253 0.0226817 0
0.088015 0.00981468 0
0.0857365 0.00517886 0
0.124933 0.0344431 0
0.154137 0.0457097 0
0.105289 0.0254828 0
0.154523 0.0473267 0
0.146268 0.0417051 0
0.112488 0.0283444 0
0.153673 0.0442743 0
0.154065 0.0453282 0
0.0904118 0.0157071 0
0.153953 0.0467369 0
0.119065 0.0305153 0
0.149953 0.0411374 0
0.15381 0.0460484 0
0.140586 0.0379407 0
0.152826 0.0422983 0
0.153664 0.0453657 0
0.0845703 -0.000375368 0
0.102349 0.0219336 0
0.127361 0.0327229 0
0.0861501 0.00442424 0
0.153448 0.0443725 0
0.153348 0.0425432 0
0.151761 0.0403633 0
0.153233 0.0434003 0
0.134591 0.0342894 0
0.0908917 0.0141444 0
0.1128 0.0257149 0
0.0972218 0.0176353 0
0.152913 0.0420317 0
0.152772 0.0440745 0
0.0860234 0.00153033 0
0.100425 0.0191656 0
0.149399 0.0377846 0
0.152586 0.040713 0
0.0889168 0.00782241 0
0.1412 0.034875 0
0.152514 0.0427422 0
0.152108 0.038859 0
0.104388 0.0207662 0
0.086566 0.0037087 0
0.126928 0.0294657 0
0.10822 0.0220756 0
0.152107 0.0389035 0
0.152133 0.040868 0
0.146049 0.0350388 0
0.0914703 0.012388 0
0.114299 0.0239497 0
0.151504 0.0414496 0
0.151611 0.0372009 0
0.151383 0.0408045 0
0.0987496 0.0161655 0
0.151585 0.038331 0
0.151262 0.0401746 0
0.120124 0.0254049 0
0.151087 0.039273 0
0.148765 0.0340219 0
0.140337 0.0313377 0
0.150786 0.0349519 0
0.150914 0.0384003 0
0.104071 0.0180389 0
0.0870806 0.00291717 0
0.127508 0.0268056 0
0.0919223 0.0107442 0
0.0854727 -0.00150304 0
0.150669 0.0371835 0
0.150816 0.0350671 0
0.0957415 0.0128149 0
0.0834754 -0.00352138 0
0.149785 0.032857 0
0.150431 0.0360211 0
0.0976063 0.0136758 0
0.149907 0.0381223 0
0.133913 0.0276874 0
0.112997 0.0205038 0
0.0813698 -0.00517132 0
0.0995271 0.0144014 0
0.149693 0.0369425 0
0.150099 0.0344533 0
0.0897896 0.00552423 0
0.10143 0.0150476 0
0.0875931 0.00215208 0
0.147468 0.0302058 0
0.149389 0.0353113 0
0.149776 0.0329803 0
0.13985 0.0277384 0
0.104555 0.0160304 0
0.149634 0.0310881 0
0.0924412 0.00895136 0
0.125617 0.0229865 0
0.0872074 -0.000274122 0
0.107871 0.0169287 0
0.148969 0.0331353 0
0.149319 0.0310469 0
0.148298 0.0350016 0
0.096485 0.0109644 0
0.0692262 -0.00868644 0
0.144035 0.0274537 0
0.148204 0.034452 0
0.148111 0.0339169 0
0.113074 0.0181703 0
0.147979 0.0331567 0
0.148851 0.0292593 0
0.0992873 0.0119008 0
0.14785 0.0324229 0
0.148412 0.0303505 0
0.0881999 0.00126293 0
0.11824 0.0191153 0
0.0862939 -0.00264562 0
0.147668 0.0314048 0
0.146368 0.0262036 0
0.0525628 -0.00801244 0
0.0928507 0.00725685 0
0.137959 0.0239118 0
0.103534 0.0129829 0
0.147492 0.0304322 0
0.0945515 0.00811638 0
0.148071 0.0269579 0
0.0956694 0.00859282 0
0.124963 0.0199736 0
0.147249 0.0291179 0
0.0968331 0.00899446 0
0.146428 0.0312904 0
0.147692 0.0269351 0
0.0978659 0.00930307 0
0.146262 0.0303102 0
0.147019 0.0278763 0
0.147068 0.0248475 0
0.0906368 0.00286647 0
0.110945 0.0144401 0
0.130889 0.0203853 0
0.099336 0.00969749 0
0.0887911 0.000393159 0
0.146029 0.0289669 0
0.146711 0.0262483 0
0.100853 0.0100655 0
0.0932233 0.00530204 0
0.145714 0.0271751 0
0.144565 0.0222345 0
0.10327 0.0106027 0
0.146423 0.0247296 0
0.136633 0.0200925 0
0.0824169 -0.00664062 0
0.0948822 0.00601613 0
0.146619 0.0229227 0
0.0883275 -0.00214832 0
0.144605 0.0278973 0
0.0870323 -0.00382811 0
0.122074 0.0158862 0
0.105954 0.0111246 0
0.144535 0.0274499 0
0.0966518 0.00656476 0
0.145302 0.0248661 0
0.144466 0.0270138 0
0.146027 0.0227866 0
0.144369 0.0263981 0
0.0894682 -0.000640589 0
0.140677 0.0195134 0
0.144275 0.0258018 0
0.110168 0.0118231 0
0.0988272 0.00702895 0
0.144141 0.0249754 0
0.145622 0.020986 0
0.144012 0.0241815 0
0.0935242 0.00345112 0
0.144786 0.0219974 0
0.0940108 0.00362573 0
0.114573 0.0123356 0
0.0945018 0.00378743 0
0.143833 0.0231044 0
0.0951567 0.00396871 0
0.10211 0.00750433 0
0.143057 0.0180881 0
0.133858 0.0161078 0
0.143661 0.0220788 0
0.095804 0.00412767 0
0.144865 0.0186964 0
0.142565 0.0240092 0
0.0901077 -0.00165882 0
0.0966875 0.00430785 0
0.12055 0.0127381 0
0.142439 0.0232089 0
0.0915541 -0.000140859 0
0.14343 0.0207204 0
0.0876939 -0.00500892 0
0.0975099 0.00443758 0
0.0853225 -0.00646074 0
0.144165 0.0185405 0
0.142265 0.0221183 0
0.143212 0.0194362 0
0.14374 0.0165873 0
0.0986613 0.0045846 0
0.107833 0.00806684 0
0.126044 0.012755 0
0.142028 0.0206592 0
0.0937302 0.00127968 0
0.0998165 0.00469959 0
0.0893921 -0.00411346 0
0.142934 0.0177807 0
0.0942697 0.00139107 0
0.0832839 -0.00812683 0
0.141714 0.0187569 0
0.101592 0.00486032 0
0.0951455 0.00155322 0
0.140609 0.0204712 0
0.0908071 -0.00288091 0
0.140719 0.0140239 0
0.131757 0.0121652 0
0.142683 0.0162306 0
0.140557 0.0201039 0
0.140506 0.019745 0
0.143164 0.0145166 0
0.140434 0.0192436 0
0.0964419 0.00173665 0
0.103573 0.00501767 0
0.117073 0.00850295 0
0.140364 0.0187556 0
0.141317 0.0163503 0
0.0882818 -0.00621509 0
0 0 0
0.140265 0.0180819 0
0.142352 0.014278 0
0.140168 0.0174298 0
0.135949 0.0113148 0
0.0939338 -0.00074386 0
0.0530971 -0.00879247 0
0.106684 0.00521351 0
0.0981643 0.001841 0
0.0941094 -0.000739967 0
0.140033 0.0165441 0
0.0942947 -0.000732761 0
0.0945798 -0.00072098 0
0.139902 0.0156926 0
0.142002 0.0124532 0
0.094886 -0.000703565 0
0.0914442 -0.00408664 0
0.140839 0.0134007 0
0.110136 0.00532212 0
0.0953473 -0.000681591 0
0.139723 0.0145582 0
0.100612 0.00181508 0
0.0958306 -0.000660634 0
0.138412 0.0164586 0
0.0926934 -0.00341271 0
0.138732 0.00970115 0
0.12815 0.00802386 0
0.139552 0.0134759 0
0.138317 0.015786 0
0.0965018 -0.00065735 0
0.141155 0.0101661 0
0.0903823 -0.00621417 0
0.138187 0.0148804 0
0.115053 0.00529052 0
0.0887995 -0.0074099 0
0.0971556 -0.000679216 0
0.139326 0.0120658 0
0.0840122 -0.00961165 0
0.138009 0.0136716 0
0.0942907 -0.00294761 0
0.140303 0.00987705 0
0.0980494 -0.000743795 0
0.139112 0.0107285 0
0.0944908 -0.00301456 0
0.104668 0.00162854 0
0.139683 0.0080549 0
0.0704424 -0.011067 0
0.0920883 -0.00553381 0
0.119911 0.00495908 0
0.13777 0.0120868 0
0.0948624 -0.00308291 0
0.0989211 -0.000842033 0
0.138855 0.00903368 0
0.0954825 -0.00316233 0
0.13632 0.0127777 0
0.0866524 -0.00941229 0
0.13628 0.012462 0
0.100187 -0.000992984 0
0.137461 0.0100593 0
0.13624 0.0121526 0
0.136186 0.0117295 0
0.0892621 -0.00863158 0
0.135752 0.00559773 0
0.136132 0.0113162 0
0.12541 0.00409734 0
0.138637 0.00744558 0
0.0964423 -0.00327995 0
0.136058 0.0107524 0
0.101535 -0.00116129 0
0.13921 0.00584095 0
0.135984 0.010204 0
0.11159 0.00112596 0
0.0946675 -0.0049843 0
0.0947551 -0.00502485 0
0.135882 0.00946313 0
0.137077 0.00754031 0
0.0926443 -0.00695781 0
0.0948436 -0.00506519 0
0.0949677 -0.00512769 0
0.135783 0.00874671 0
0.138346 0.00548465 0
0.0977691 -0.00351649 0
0.0950983 -0.00518782 0
0.103618 -0.00139771 0
0.1298 0.00298136 0
0.0953074 -0.00526729 0
0.0912536 -0.00850469 0
0.135648 0.00779444 0
0.0845701 -0.0110964 0
0.0955245 -0.0053453 0
0.135516 0.00688018 0
0.0958597 -0.00544978 0
0.0939098 -0.00702543 0
0.0293035 -0.00563688 0
0.137998 0.00366034 0
0.0896522 -0.00984258 0
0.106006 -0.00166439 0
0.133943 0.00861126 0
0.136633 0.00451761 0
0.0962106 -0.00555325 0
0.135344 0.00568905 0
0.0995728 -0.00396252 0
0.13387 0.00801774 0
0.0534469 -0.00956683 0
0.0967081 -0.00570861 0
0.133771 0.00723821 0
0.133217 0.00118281 0
0.13518 0.00455594 0
0.121236 -0.000105649 0
0.133639 0.00621338 0
0.0931855 -0.00863348 0
0.0972061 -0.00587552 0
0.0952594 -0.0071903 0
0.136855 0.00144886 0
0.109577 -0.00209903 0
0.0953905 -0.00728831 0
0.134971 0.00311433 0
0.133464 0.00488046 0
0.0955918 -0.00743175 0
0.0978814 -0.00613175 0
0.136168 0.00100111 0
0.10228 -0.00471709 0
0.0959012 -0.00763603 0
0.0899894 -0.0110924 0
0.134778 0.00175383 0
0.0985495 -0.0064098 0
0.134737 -0.000591948 0
0.133236 0.0031804 0
0.113444 -0.00271945 0
0.0850004 -0.0125768 0
0.131702 0.00476957 0
0.0963717 -0.00792464 0
0.13167 0.00448517 0
0.131638 0.0042065 0
0.131597 0.00383738 0
0.134565 7.12182e-05 0
0.0875189 -0.0123341 0
0.0919513 -0.0110312 0
0.0994498 -0.0068184 0
0.131555 0.00347665 0
0.0936055 -0.0102838 0
0.132955 0.00106828 0
0.131499 0.00299591 0
0.0970591 -0.00833798 0
0.131444 0.002528 0
0.0956986 -0.00930701 0
0.0957663 -0.00935581 0
0.0958337 -0.00940482 0
0.129599 -0.00280272 0
0.118259 -0.00379433 0
0.131369 0.00190606 0
0.134383 -0.00150099 0
0.100357 -0.00725267 0
0.0959301 -0.00947737 0
0.0960258 -0.00955034 0
0.131296 0.00130406 0
0.0902516 -0.012333 0
0.106865 -0.00595721 0
0.134709 -0.00290318 0
0.0961631 -0.00965657 0
0.1312 0.000511986 0
0.0962998 -0.00976368 0
0.132631 -0.001476 0
0.0979951 -0.00894862 0
0.0964941 -0.00991749 0
0.131107 -0.000249391 0
0.101667 -0.00784792 0
0.0948784 -0.0110678 0
0.134069 -0.00339763 0
0.0966879 -0.010073 0
0 0 0
0.122608 -0.00513142 0
0.130987 -0.00123472 0
0.0969624 -0.0102949 0
0.0852811 -0.0140519 0
0.129164 0.000482828 0
0.0709887 -0.0135119 0
0.130874 -0.0021745 0
0.09398 -0.0122018 0
0.0972341 -0.0105215 0
0.12911 -5.77399e-05 0
0.103117 -0.00846413 0
0.0535852 -0.0104012 0
0.133665 -0.00513175 0
0.12904 -0.000740025 0
0.0904567 -0.0136252 0
0.0992789 -0.00982797 0
0.132287 -0.00444405 0
0.0976053 -0.0108433 0
0.130736 -0.00336606 0
0.0960998 -0.0117036 0
0.128949 -0.00161062 0
0.0962161 -0.0118012 0
0.0963884 -0.0119468 0
0.0979656 -0.0111752 0
0.114212 -0.00795723 0
0.13061 -0.00449441 0
0.126545 -0.0071091 0
0.128833 -0.00271998 0
0.0924216 -0.0138283 0
0.0966373 -0.0121611 0
0.105338 -0.0092974 0
0.131995 -0.00714124 0
0.0984369 -0.0116402 0
0.128689 -0.00411721 0
0.130467 -0.00589462 0
0.0969876 -0.0124735 0
0.101034 -0.0110994 0
0.0905863 -0.0149077 0
0.0879536 -0.015234 0
0.0942203 -0.0140894 0
0.131835 -0.00780123 0
0.0988921 -0.0121223 0
0.0854466 -0.0155253 0
0.126723 -0.00346687 0
0.0974649 -0.0129253 0
0.130333 -0.00721591 0
0.126701 -0.00372614 0
0.128516 -0.00584467 0
0.10793 -0.0102213 0
0.126679 -0.00398014 0
0.128824 -0.00905594 0
0.126653 -0.0043026 0
0.126627 -0.00461777 0
0.126593 -0.00502407 0
0.0963338 -0.0140389 0
0.0995123 -0.0127706 0
0.0963879 -0.0140886 0
0.0964418 -0.0141386 0
0.12656 -0.00541994 0
0.0965201 -0.0142126 0
0.0980924 -0.0135757 0
0.13016 -0.00882675 0
0.0965982 -0.0142871 0
0.126517 -0.00593301 0
0.0967102 -0.0143958 0
0.128317 -0.00793771 0
0.126476 -0.00643098 0
0.0968215 -0.0145056 0
0.0969787 -0.0146637 0
0.0906526 -0.0162538 0
0.100121 -0.0134366 0
0.126424 -0.00707489 0
0.111535 -0.0115412 0
0.12255 -0.0110765 0
0.0971337 -0.014824 0
0.129985 -0.0103581 0
0.126374 -0.00769728 0
0.10371 -0.0129378 0
0.0953713 -0.0156318 0
0.0973481 -0.0150518 0
0.129629 -0.0115277 0
0.0988807 -0.0145058 0
0.126314 -0.00849629 0
0.094355 -0.0162563 0
0.0975581 -0.0152836 0
0.0854807 -0.0169924 0
0.128086 -0.0104294 0
0.0535332 -0.011204 0
0.126256 -0.00926582 0
0.100928 -0.0143248 0
0.0925916 -0.0169306 0
0.0978397 -0.0156091 0
0.129577 -0.0121986 0
0.124033 -0.00773846 0
0.115331 -0.0131007 0
0.126182 -0.0102435 0
0.124001 -0.00823802 0
0.0981133 -0.0159419 0
0.0906435 -0.0175893 0
0.123961 -0.00884136 0
0.0964101 -0.0167277 0
0.0965044 -0.0168297 0
0.12611 -0.0111844 0
0.101733 -0.0152351 0
0.0998206 -0.0158182 0
0.123913 -0.00958485 0
0.0966425 -0.0169817 0
0.0984679 -0.0164032 0
0.128964 -0.0138913 0
0.0968396 -0.017205 0
0.0879857 -0.0181199 0
0.127785 -0.0133654 0
0.123855 -0.0105113 0
0.126027 -0.0123636 0
0.0988037 -0.0168776 0
0.0971136 -0.0175294 0
0.0708737 -0.0160066 0
0.108292 -0.0156367 0
0.094322 -0.0183924 0
0.123785 -0.0116683 0
0.119224 -0.0153153 0
0.0854062 -0.0184563 0
0.125936 -0.0135028 0
0.102879 -0.0164307 0
0.0974837 -0.0179957 0
0.0992233 -0.0175241 0
0.0905549 -0.0190018 0
0.126507 -0.0157606 0
0.123699 -0.0131064 0
0 0 0
0.125813 -0.0149153 0
0.10093 -0.017632 0
0.121347 -0.0117242 0
0.0979659 -0.0186597 0
0.0996123 -0.0181914 0
0.121337 -0.0119684 0
0.121327 -0.0122085 0
0.0291476 -0.0063647 0
0.0962726 -0.0193539 0
0.121317 -0.0124992 0
0.127178 -0.0167399 0
0.0963151 -0.0194059 0
0.0963573 -0.0194581 0
0.121306 -0.0127847 0
0.104143 -0.0176934 0
0.0964191 -0.0195353 0
0.123591 -0.0148836 0
0.125669 -0.0162793 0
0.121293 -0.0131394 0
0.0964804 -0.0196129 0
0.122032 -0.017604 0
0.0965684 -0.0197261 0
0.12128 -0.0134872 0
0.0966554 -0.0198401 0
0.100075 -0.0190914 0
0.121264 -0.0139264 0
0.0985651 -0.0195968 0
0.0967778 -0.0200039 0
0.0923588 -0.020367 0
0.0532626 -0.012083 0
0.121247 -0.0143567 0
0.0903902 -0.0204039 0
0.0968984 -0.0201692 0
0.0852147 -0.0199117 0
0.121228 -0.014903 0
0.0970639 -0.0204034 0
0.125443 -0.017942 0
0.0941004 -0.0208106 0
0.0951251 -0.0207584 0
0.121208 -0.0154387 0
0.0972256 -0.0206405 0
0.123432 -0.0170691 0
0.100486 -0.0200263 0
0.121185 -0.0161201 0
0.106122 -0.0193602 0
0.0974418 -0.0209715 0
0.114974 -0.0195049 0
0.087642 -0.0209933 0
0.0992653 -0.0209063 0
0.102199 -0.0201402 0
0.12116 -0.0167894 0
0.0976505 -0.0213081 0
0.125197 -0.019558 0
0.123642 -0.0204818 0
0.121123 -0.017642 0
0.0979198 -0.0217715 0
0.100946 -0.021268 0
0.0901231 -0.0218938 0
0.11837 -0.0160383 0
0.123171 -0.0197251 0
0.0958847 -0.0223065 0
0.12108 -0.01848 0
0.118357 -0.016535 0
0.0959589 -0.022412 0
0.0981758 -0.0222447 0
0.0960671 -0.0225687 0
0.0849207 -0.0213615 0
0.118342 -0.0171131 0
0.124534 -0.0214734 0
0.10852 -0.021258 0
0.0962212 -0.0227983 0
0.121014 -0.0195393 0
0.118323 -0.0178042 0
0.0984931 -0.0228865 0
0.100005 -0.0227163 0
0.0964349 -0.0231302 0
0.093683 -0.0231895 0
0.101317 -0.0225588 0
0.118302 -0.0186475 0
0.120938 -0.0205785 0
0.0967223 -0.0236042 0
0.0987852 -0.0235451 0
0.12341 -0.0232283 0
0.118271 -0.0196942 0
0.0897787 -0.0233719 0
0.122746 -0.02289 0
0.120826 -0.021874 0
0.097094 -0.0242735 0
0.052801 -0.0128927 0
0.0701112 -0.0185315 0
0.103891 -0.0237025 0
0.0991255 -0.0244255 0
0.0915973 -0.0241506 0
0.118222 -0.0210032 0
0.111318 -0.0238563 0
0.101663 -0.0242428 0
0.084523 -0.0228001 0
0.120697 -0.0231394 0
0.0975522 -0.0252085 0
0.119681 -0.0249556 0
0.0952608 -0.0251822 0
0.11533 -0.0202157 0
0.0952945 -0.0252357 0
0.0953279 -0.0252893 0
0.0994231 -0.025331 0
0.0869394 -0.0238559 0
0.115327 -0.020475 0
0.100672 -0.0251821 0
0.095377 -0.0253685 0
0.11814 -0.0226395 0
0.0954256 -0.025448 0
0.115325 -0.0207315 0
0.0954955 -0.0255638 0
0.115323 -0.0210279 0
0.0955645 -0.0256802 0
0.12051 -0.0246885 0
0.115321 -0.0213215 0
0.0956614 -0.0258471 0
0.115319 -0.0216706 0
0.0957566 -0.0260152 0
0.0893122 -0.0249446 0
0.115316 -0.0220168 0
0.0930049 -0.0258282 0
0.101875 -0.0259738 0
0.0958869 -0.0262526 0
0.121758 -0.0264954 0
0.115311 -0.0224397 0
0.0980789 -0.0265019 0
0.0960138 -0.0264923 0
0.099738 -0.0265212 0
0.118 -0.0246655 0
0.115304 -0.0228592 0
0.120293 -0.0261898 0
0.113962 -0.026662 0
0.0939062 -0.0263751 0
0 0 0
0.0961827 -0.0268259 0
0.115293 -0.0233799 0
0.084029 -0.0242302 0
0.0963453 -0.0271639 0
0.11528 -0.0238962 0
0.115259 -0.0245428 0
0.0965543 -0.0276272 0
0.0999797 -0.027749 0
0.119963 -0.0279859 0
0.115235 -0.0251829 0
0.117766 -0.0271321 0
0.0967512 -0.0280987 0
0.0986254 -0.0282722 0
0.102305 -0.0281173 0
0.0887631 -0.0265018 0
0.115199 -0.0259857 0
0.107196 -0.0285877 0
0.101064 -0.028471 0
0.0521101 -0.0137874 0
0.0969931 -0.0287358 0
0.0943078 -0.0283388 0
0.115157 -0.0267782 0
0.0943686 -0.0284466 0
0.11961 -0.0297347 0
0.0944568 -0.0286064 0
0.111845 -0.0248891 0
0.100181 -0.0293422 0
0.115862 -0.0301376 0
0.0945818 -0.0288401 0
0.0972134 -0.0293867 0
0.115096 -0.0277675 0
0.111844 -0.025447 0
0.0921142 -0.0284097 0
0.0834437 -0.0256448 0
0.0947545 -0.0291769 0
0.111841 -0.0260747 0
0.0858891 -0.026705 0
0.117383 -0.0300748 0
0.090186 -0.0282581 0
0.115024 -0.0287409 0
0.0949853 -0.0296558 0
0.0974672 -0.0302535 0
0.111834 -0.0268014 0
0.102871 -0.0303671 0
0.0990859 -0.0306696 0
0.118401 -0.0316984 0
0.111819 -0.027664 0
0.0952816 -0.0303283 0
0.08807 -0.0281547 0
0.100249 -0.0310017 0
0.114921 -0.0299437 0
0.0976827 -0.0311437 0
0.0687189 -0.0210434 0
0.111792 -0.0287059 0
0.114802 -0.0311233 0
0.095642 -0.0312617 0
0.0281082 -0.00707388 0
0.116177 -0.0334543 0
0.111745 -0.0299775 0
0.0827679 -0.0270458 0
0.097902 -0.0323115 0
0.116779 -0.0335111 0
0.114633 -0.0325591 0
0.101022 -0.0327685 0
0.093102 -0.0313903 0
0.0931296 -0.0314447 0
0.0931571 -0.0314992 0
0.0931976 -0.0315798 0
0.100153 -0.033109 0
0.0932378 -0.0316606 0
0.0960485 -0.0325428 0
0.103891 -0.0331945 0
0.0932957 -0.0317782 0
0.111665 -0.0315339 0
0.0933529 -0.0318961 0
0.0934331 -0.0320651 0
0.0909057 -0.0312008 0
0.0872952 -0.0297829 0
0.108267 -0.0295437 0
0.0980556 -0.0335166 0
0.0935118 -0.032235 0
0.0512421 -0.014566 0
0.114441 -0.0339627 0
0.108268 -0.0298478 0
0.0992419 -0.0338787 0
0.0936194 -0.0324744 0
0.108269 -0.0301507 0
0.110998 -0.0349346 0
0.0937239 -0.0327157 0
0.108268 -0.0304874 0
0.108266 -0.0308228 0
0.0938624 -0.0330506 0
0.111532 -0.0334317 0
0.108263 -0.0312051 0
0.0915377 -0.0323318 0
0.0939951 -0.033389 0
0.108258 -0.0315858 0
0.0964508 -0.0342817 0
0.114176 -0.035642 0
0.0845039 -0.0295275 0
0.108251 -0.0320302 0
0.0820126 -0.0284226 0
0.0998859 -0.0352806 0
0.0981485 -0.0350692 0
0.0941647 -0.0338513 0