# vtk DataFile Version 3.0
File generated from DClib
ASCII

DATASET UNSTRUCTURED_GRID
POINTS 1909 float
50 0 0 
48.75 0 0 
50 1.66667 0 
47.5 0 0 
50 3.33333 0 
46.25 0 0 
50 5 0 
45 0 0 
43.75 0 0 
50 6.66667 0 
43 2 0 
42.5 0 0 
50 8.33333 0 
43 4.66667 0 
41.25 0 0 
41.075 2 0 
50 10 0 
40 0 0 
43 7.33333 0 
39.15 2 0 
38.75 0 0 
43 10 0 
37.5 0 0 
37.225 2 0 
36.25 0 0 
36 4 0 
35.3 2 0 
36 5 0 
35 0 0 
35.325 4 0 
36 6 0 
36 7 0 
34.65 4 0 
36 8 0 
33.75 0 0 
33.975 4 0 
36 9 0 
33.375 2 0 
33.3 4 0 
36 10 0 
32.5 0 0 
32.625 4 0 
33 6 0 
31.95 4 0 
33 7.45455 0 
31.45 2 0 
31.25 0 0 
31.95 6 0 
33 8.79545 0 
31.275 4 0 
33 10 0 
30.6 4 0 
30 0 0 
30.9 6 0 
29.925 4 0 
29.525 2 0 
29.85 6 0 
29.25 4 0 
28.75 0 0 
30 8 0 
30 8.45455 0 
28.575 4 0 
29.625 8 0 
30 8.90909 0 
28.8 6 0 
30 9.25 0 
29.782 8.90909 0 
30 9.59091 0 
29.9487 9.59091 0 
29.25 8 0 
29.7462 9.25 0 
30 9.79545 0 
29.897 9.59091 0 
29.564 8.90909 0 
29.9547 9.79545 0 
29.3462 8.45455 0 
29.84 9.59091 0 
30 10 0 
29.8975 9.79545 0 
29.9882 10 0 
29.9902 10.0098 0 
29.7827 9.59091 0 
29.9765 10 0 
29.9804 10.0196 0 
29.9667 10.0098 0 
29.9591 10 0 
29.9686 10.0196 0 
29.9659 10.0341 0 
29.9569 10.0196 0 
29.9418 10 0 
29.9395 10.0196 0 
29.9515 10.0485 0 
29.932 10.0098 0 
29.9424 10.0341 0 
29.8241 9.79545 0 
29.7181 9.59091 0 
29.9166 10 0 
29.9397 10.0485 0 
29.9222 10.0196 0 
29.9279 10.0485 0 
29.9305 10.0695 0 
29.8914 10 0 
29.9077 10.0341 0 
27.9 4 0 
29.897 10.0196 0 
29.9106 10.0485 0 
29.8817 10.0098 0 
29.907 10.0695 0 
29.8933 10.0485 0 
29.9095 10.0905 0 
29.8719 10.0196 0 
27.6 2 0 
29.8556 10 0 
29.8978 10.0905 0 
29.6531 9.59091 0 
29.3437 8.90909 0 
27.5 0 0 
29.8681 10.0485 0 
29.886 10.0905 0 
29.8574 10.0341 0 
29.4839 9.25 0 
29.8723 10.0695 0 
29.7289 9.79545 0 
29.836 10.0196 0 
29.8687 10.0905 0 
29.8197 10 0 
29.8797 10.1203 0 
29.843 10.0485 0 
29.8513 10.0905 0 
29.81 10.0098 0 
29.8561 10.1203 0 
29.8002 10.0196 0 
29.8221 10.0695 0 
29.8072 10.0485 0 
29.8262 10.0905 0 
29.5782 9.59091 0 
29.8498 10.1502 0 
29.7695 10 0 
29.7858 10.0341 0 
29.838 10.1502 0 
29.8215 10.1203 0 
29.8011 10.0905 0 
29.8262 10.1502 0 
29.7714 10.0485 0 
28.875 8 0 
29.75 10.0196 0 
29.8089 10.1502 0 
29.7654 10.0905 0 
29.7193 10 0 
29.7916 10.1502 0 
29.7505 10.0695 0 
29.8079 10.1921 0 
29.7713 10.1203 0 
29.7096 10.0098 0 
29.6047 9.79545 0 
29.503 9.59091 0 
29.7213 10.0485 0 
29.7665 10.1502 0 
29.6999 10.0196 0 
29.7844 10.1921 0 
29.7296 10.0905 0 
29.6856 10.0341 0 
29.7414 10.1502 0 
29.7497 10.1921 0 
29.6503 10 0 
29.7661 10.2339 0 
29.6712 10.0485 0 
29.6999 10.1203 0 
29.7543 10.2339 0 
29.6796 10.0905 0 
29.7057 10.1502 0 
29.7425 10.2339 0 
29.1235 8.90909 0 
29.6309 10.0196 0 
29.6504 10.0695 0 
29.4146 9.59091 0 
29.7252 10.2339 0 
29.6996 10.1921 0 
29.6701 10.1502 0 
29.7079 10.2339 0 
29.6296 10.0905 0 
29.5813 10 0 
29.6023 10.0485 0 
29.5716 10.0098 0 
29.6828 10.2339 0 
29.7086 10.2914 0 
29.2101 9.25 0 
29.562 10.0196 0 
29.6201 10.1502 0 
29.6578 10.2339 0 
29.4428 9.79545 0 
29.5999 10.1203 0 
29.6849 10.2914 0 
29.6283 10.1921 0 
29.5477 10.0341 0 
29.3259 9.59091 0 
29.5608 10.0905 0 
29.5335 10.0485 0 
29.6221 10.2339 0 
29.6503 10.2914 0 
29.5702 10.1502 0 
29.4881 10 0 
29.5128 10.0695 0 
29.6511 10.3489 0 
29.5866 10.2339 0 
29.6392 10.3489 0 
29.4689 10.0196 0 
29.6002 10.2914 0 
29.6273 10.3489 0 
29.4921 10.0905 0 
29.61 10.3489 0 
29.5286 10.1921 0 
29.5016 10.1502 0 
29.5368 10.2339 0 
29.5926 10.3489 0 
29.4405 10.0485 0 
29.2199 9.59091 0 
29.4626 10.1203 0 
29.3949 10 0 
28.9 8.90909 0 
29.5676 10.3489 0 
29.5291 10.2914 0 
29.3853 10.0098 0 
28.6923 8.45455 0 
29.487 10.2339 0 
29.5426 10.3489 0 
29.3758 10.0196 0 
29.5734 10.4266 0 
29.4331 10.1502 0 
29.3993 10.0905 0 
28.5 8 0 
29.3617 10.0341 0 
29.5496 10.4266 0 
29.5071 10.3489 0 
29.2327 9.79545 0 
29.3475 10.0485 0 
29.1136 9.59091 0 
29.4187 10.2339 0 
29.5148 10.4266 0 
29.4716 10.3489 0 
29.3918 10.1921 0 
29.3271 10.0695 0 
29.4298 10.2914 0 
29.2714 10 0 
29.3406 10.1502 0 
28.9208 9.25 0 
29.3066 10.0905 0 
29.4648 10.4266 0 
29.422 10.3489 0 
29.4958 10.5042 0 
29.2524 10.0196 0 
27.75 6 0 
29.3504 10.2339 0 
29.4837 10.5042 0 
29.4718 10.5042 0 
29.2774 10.1203 0 
29.4543 10.5042 0 
29.3724 10.3489 0 
29.2244 10.0485 0 
29.4369 10.5042 0 
29.3938 10.4266 0 
28.9853 9.59091 0 
29.2481 10.1502 0 
28.6766 8.90909 0 
29.4119 10.5042 0 
29.2934 10.2914 0 
27.225 4 0 
29.148 10 0 
29.2582 10.2339 0 
29.1837 10.0905 0 
29.3869 10.5042 0 
29.1385 10.0098 0 
29.3044 10.3489 0 
29.1291 10.0196 0 
29.2072 10.1921 0 
29.3514 10.5042 0 
29.1152 10.0341 0 
29.3929 10.6071 0 
29.2949 10.4266 0 
29.1013 10.0485 0 
29.3686 10.6071 0 
29.316 10.5042 0 
29.2364 10.3489 0 
28.9623 9.79545 0 
29.1257 10.1502 0 
29.1662 10.2339 0 
29.0811 10.0695 0 
28.8566 9.59091 0 
29.3336 10.6071 0 
29.2666 10.5042 0 
29.0609 10.0905 0 
28.9875 10 0 
29.2835 10.6071 0 
29.1448 10.3489 0 
29.0321 10.1203 0 
29.2173 10.5042 0 
29.1098 10.2914 0 
28.125 8 0 
28.9688 10.0196 0 
29.1594 10.4266 0 
28.611 9.25 0 
29.29 10.71 0 
28.4486 8.90909 0 
29.0443 10.2339 0 
29.0033 10.1502 0 
29.2777 10.71 0 
28.9413 10.0485 0 
29.2128 10.6071 0 
29.2655 10.71 0 
29.1497 10.5042 0 
29.2478 10.71 0 
28.7003 9.59091 0 
29.0533 10.3489 0 
29.2303 10.71 0 
28.9629 10.1921 0 
28.9013 10.0905 0 
29.2051 10.71 0 
29.0822 10.5042 0 
29.1801 10.71 0 
28.827 10 0 
29.1144 10.6071 0 
28.8177 10.0098 0 
28.9225 10.2339 0 
28.8085 10.0196 0 
29.1447 10.71 0 
28.7949 10.0341 0 
28.8443 10.1502 0 
28.977 10.4266 0 
28.9322 10.3489 0 
29.1094 10.71 0 
28.7813 10.0485 0 
28.9912 10.5042 0 
29.1562 10.8438 0 
28.5436 9.59091 0 
28.7615 10.0695 0 
28.8669 10.2914 0 
29.1313 10.8438 0 
28.6184 9.79545 0 
29.0602 10.71 0 
28.2207 8.90909 0 
28.7418 10.0905 0 
28.0378 8.45455 0 
28.9798 10.6071 0 
29.0958 10.8438 0 
29.0112 10.71 0 
28.9005 10.5042 0 
28.7136 10.1203 0 
28.7644 10.2339 0 
28.8113 10.3489 0 
29.0454 10.8438 0 
28.6223 10 0 
28.6854 10.1502 0 
28.2746 9.25 0 
28.9441 10.71 0 
28.6042 10.0196 0 
27.75 8 0 
28.9747 10.8438 0 
28.6459 10.1921 0 
28.5773 10.0485 0 
29.0225 10.9775 0 
28.3532 9.59091 0 
28.7804 10.5042 0 
28.736 10.4266 0 
28.8772 10.71 0 
29.0097 10.9775 0 
28.9971 10.9775 0 
28.799 10.6071 0 
28.9791 10.9775 0 
28.5384 10.0905 0 
28.6064 10.2339 0 
28.6543 10.3489 0 
28.9611 10.9775 0 
28.8769 10.8438 0 
27.9867 8.90909 0 
26.25 0 0 
28.9358 10.9775 0 
28.7871 10.71 0 
28.9106 10.9775 0 
28.6607 10.5042 0 
28.4177 10 0 
26.55 4 0 
28.552 10.2914 0 
28.483 10.1502 0 
28.4087 10.0098 0 
28.8751 10.9775 0 
28.3998 10.0196 0 
28.3866 10.0341 0 
28.8399 10.9775 0 
28.6974 10.71 0 
28.3735 10.0485 0 
28.1625 9.59091 0 
28.7436 10.8438 0 
28.4976 10.3489 0 
28.3543 10.0695 0 
28.791 10.9775 0 
28.4052 10.2339 0 
28.3352 10.0905 0 
28.8519 11.1481 0 
28.1869 9.79545 0 
28.5607 10.6071 0 
28.5053 10.5042 0 
28.7423 10.9775 0 
28.8258 11.1481 0 
28.308 10.1203 0 
28.5787 10.71 0 
27.904 9.25 0 
28.7893 11.1481 0 
28.424 10.4266 0 
27.7528 8.90909 0 
28.2807 10.1502 0 
28.6758 10.9775 0 
27.375 8 0 
28.7383 11.1481 0 
28.1619 10 0 
28.5649 10.8438 0 
28.2425 10.1921 0 
28.6096 10.9775 0 
28.1444 10.0196 0 
28.298 10.3489 0 
28.4605 10.71 0 
26.7 6 0 
27.9315 9.59091 0 
28.3503 10.5042 0 
28.6676 11.1481 0 
28.1187 10.0485 0 
28.2042 10.2339 0 
28.5207 10.9775 0 
28.0813 10.0905 0 
28.6814 11.3186 0 
27.3818 8.45455 0 
28.6679 11.3186 0 
28.1516 10.2914 0 
28.5703 11.1481 0 
28.6544 11.3186 0 
28.6358 11.3186 0 
27.5109 8.90909 0 
28.3072 10.71 0 
28.6173 11.3186 0 
28.2524 10.6071 0 
28.4322 10.9775 0 
28.028 10.1502 0 
28.5915 11.3186 0 
28.0989 10.3489 0 
28.33 10.8438 0 
28.5658 11.3186 0 
28.153 10.5042 0 
27.9061 10 0 
27.8975 10.0098 0 
28.5303 11.3186 0 
28.4384 11.1481 0 
27.7002 9.59091 0 
27.889 10.0196 0 
27.8765 10.0341 0 
28.4949 11.3186 0 
28.3154 10.9775 0 
27.9532 10.2339 0 
27.8639 10.0485 0 
28.0276 10.4266 0 
28.1544 10.71 0 
27.8457 10.0695 0 
27.4909 9.25 0 
28.4463 11.3186 0 
27 8 0 
27.8275 10.0905 0 
28.3979 11.3186 0 
27.8015 10.1203 0 
27.6542 9.79545 0 
25.675 2 0 
28.1991 10.9775 0 
27.2691 8.90909 0 
27.9563 10.5042 0 
28.4682 11.5318 0 
28.2625 11.1481 0 
27.7755 10.1502 0 
28.3322 11.3186 0 
27.8502 10.3489 0 
28.4401 11.5318 0 
25.875 4 0 
27.7391 10.1921 0 
28.4019 11.5318 0 
28.0268 10.8438 0 
28.2668 11.3186 0 
27.9602 10.71 0 
28.3498 11.5318 0 
27.4223 9.59091 0 
27.7026 10.2339 0 
27.5927 10 0 
28.0486 10.9775 0 
27.8616 10.6071 0 
27.5762 10.0196 0 
28.1794 11.3186 0 
28.2786 11.5318 0 
27.5519 10.0485 0 
27.6524 10.2914 0 
28.0319 11.1481 0 
27.7108 10.5042 0 
27.5167 10.0905 0 
27.0169 8.90909 0 
28.0924 11.3186 0 
27.6021 10.3489 0 
27.8988 10.9775 0 
28.1818 11.5318 0 
27.7667 10.71 0 
26.625 8 0 
28.255 11.745 0 
27.4664 10.1502 0 
28.2402 11.745 0 
28.2256 11.745 0 
28.2059 11.745 0 
27.978 11.3186 0 
26.7234 8.45455 0 
27.0259 9.25 0 
27.5342 10.4266 0 
28.1863 11.745 0 
27.1442 9.59091 0 
28.0516 11.5318 0 
28.1598 11.745 0 
27.3959 10.2339 0 
28.1334 11.745 0 
27.2793 10 0 
27.2714 10.0098 0 
27.2635 10.0196 0 
27.7086 10.9775 0 
27.6431 10.8438 0 
28.0975 11.745 0 
27.8643 11.3186 0 
27.4661 10.5042 0 
27.2518 10.0341 0 
27.2401 10.0485 0 
28.0617 11.745 0 
26.7648 8.90909 0 
27.5255 10.71 0 
27.7353 11.1481 0 
27.2231 10.0695 0 
28.0133 11.745 0 
27.2061 10.0905 0 
27.8791 11.5318 0 
27.2986 10.3489 0 
27.1818 10.1203 0 
27.9651 11.745 0 
27.3758 10.6071 0 
27.0077 9.79545 0 
27.7174 11.3186 0 
27.1576 10.1502 0 
25 0 0 
27.5193 10.9775 0 
27.9003 11.745 0 
27.1236 10.1921 0 
26.25 8 0 
27.9939 12.0061 0 
25.65 6 0 
27.8359 11.745 0 
26.8136 9.59091 0 
27.0896 10.2339 0 
27.9626 12.0061 0 
27.2853 10.71 0 
25.2 4 0 
27.5713 11.3186 0 
27.9218 12.0061 0 
26.4998 8.90909 0 
27.167 10.5042 0 
27.6541 11.5318 0 
27.0427 10.2914 0 
27.7503 11.745 0 
26.9033 10 0 
27.8677 12.0061 0 
26.8882 10.0196 0 
26.8659 10.0485 0 
26.9958 10.3489 0 
27.2836 10.9775 0 
27.6652 11.745 0 
27.3609 11.1481 0 
27.7955 12.0061 0 
26.499 9.25 0 
[...]
POINT_DATA 1909
SCALARS phi float 1
LOOKUP_TABLE default
VECTORS Displacement float
0 0 0
0 0 0
0 -0.00114194 0
0 0 0
0 -0.00206565 0
0 0 0
0 -0.00276324 0
0 0 0
0 0 0
0 -0.00324994 0
0.000187725 -0.00133688 0
0 0 0
0 -0.00352135 0
0.000347516 -0.00262834 0
0 0 0
0.000260305 -0.00135447 0
0 -0.00358425 0
0 0 0
0.000429893 -0.0033516 0
0.000344251 -0.0013778 0
0 0 0
0.000451631 -0.00353523 0
0 0 0
0.000440581 -0.00141465 0
0 0 0
0.000821846 -0.00252597 0
0.000546798 -0.00147122 0
0.000936498 -0.00290395 0
0 0 0
0.000889838 -0.00255731 0
0.00100706 -0.00320174 0
0.001033 -0.00341563 0
0.000960596 -0.00259462 0
0.00102123 -0.00355922 0
0 0 0
0.00103205 -0.00264339 0
0.000992521 -0.00362892 0
0.000656524 -0.00155149 0
0.00110529 -0.00269996 0
0.000949755 -0.00364162 0
0 0 0
0.00117608 -0.00276636 0
0.00140052 -0.00351004 0
0.00124675 -0.00284173 0
0.00142768 -0.00384603 0
0.000759839 -0.0016562 0
0 0 0
0.00153878 -0.00370606 0
0.00133118 -0.0039777 0
0.00131183 -0.002925 0
0.00112063 -0.00396802 0
0.00137418 -0.0030175 0
0 0 0
0.00166537 -0.00393267 0
0.00142827 -0.0031153 0
0.000844895 -0.0017823 0
0.00177388 -0.00418708 0
0.00147676 -0.00322155 0
0 0 0
0.00185433 -0.00481431 0
0.00183908 -0.00490453 0
0.00151552 -0.00333004 0
0.00190217 -0.00495372 0
0.00180463 -0.0049729 0
0.00185879 -0.00446253 0
0.00176313 -0.00500788 0
0.00183891 -0.00507795 0
0.00169955 -0.00502811 0
0.00171125 -0.00505983 0
0.00194414 -0.00510012 0
0.00180459 -0.00514433 0
0.00165642 -0.00502709 0
0.00172268 -0.00509191 0
0.00186965 -0.00518312 0
0.00166669 -0.00506324 0
0.00192439 -0.00518367 0
0.00173356 -0.00512696 0
0.00158206 -0.00502056 0
0.00167926 -0.00510539 0
0.00159014 -0.00503507 0
0.00159566 -0.00503497 0
0.00174434 -0.00516136 0
0.00159774 -0.00504769 0
0.00160543 -0.00504707 0
0.00160594 -0.00505728 0
0.00160709 -0.00506365 0
0.00160913 -0.00505684 0
0.00161667 -0.00506206 0
0.00161359 -0.00506669 0
0.00161597 -0.00507831 0
0.00162027 -0.00508066 0
0.00162583 -0.00507573 0
0.00162151 -0.00508621 0
0.00162326 -0.00507985 0
0.00169551 -0.0051542 0
0.00175552 -0.00519919 0
0.00162699 -0.00509796 0
0.00162858 -0.00508404 0
0.00162689 -0.0050941 0
0.00163156 -0.00509245 0
0.00163688 -0.00509417 0
0.00163733 -0.00511648 0
0.00163437 -0.00510566 0
0.00154612 -0.00344517 0
0.00163615 -0.00511276 0
0.00163628 -0.00510485 0
0.00164111 -0.00512357 0
0.00164178 -0.00511 0
0.00164121 -0.00511715 0
0.00164603 -0.00511163 0
0.00164486 -0.0051307 0
0.000900695 -0.00192304 0
0.00165014 -0.00514163 0
0.00164816 -0.00511923 0
0.00176686 -0.00523631 0
0.00189783 -0.0052899 0
0 0 0
0.0016484 -0.00513467 0
0.00165043 -0.0051269 0
0.00165033 -0.00514125 0
0.00184325 -0.00528218 0
0.00165 -0.00513353 0
0.00171643 -0.00521259 0
0.00165648 -0.00515532 0
0.001654 -0.00513826 0
0.00166206 -0.00516572 0
0.00165688 -0.00513543 0
0.00165556 -0.00515183 0
0.00165773 -0.00514966 0
0.00166464 -0.0051724 0
0.00166083 -0.00515021 0
0.00166722 -0.00517911 0
0.00166259 -0.00516716 0
0.00166543 -0.00517573 0
0.00166332 -0.00516612 0
0.0017794 -0.00527822 0
0.0016659 -0.0051584 0
0.00167675 -0.00519832 0
0.0016711 -0.00518906 0
0.00166768 -0.00516562 0
0.00166724 -0.00517223 0
0.00166902 -0.00518248 0
0.00166953 -0.00517287 0
0.00167491 -0.00519907 0
0.0019824 -0.00524857 0
0.00168113 -0.00521145 0
0.00167239 -0.00518363 0
0.00167715 -0.00520554 0
0.00169036 -0.00522996 0
0.00167535 -0.00519443 0
0.00168019 -0.00521365 0
0.00167626 -0.00518966 0
0.0016772 -0.00520419 0
0.00169213 -0.00523645 0
0.00174241 -0.00528505 0
0.00179198 -0.00531982 0
0.00168746 -0.00523104 0
0.0016798 -0.00521012 0
0.00169392 -0.00524297 0
0.00167961 -0.00520391 0
0.00168519 -0.00522832 0
0.00169661 -0.00525263 0
0.00168436 -0.00522582 0
0.00168486 -0.00522508 0
0.0017071 -0.00527244 0
0.00168465 -0.00522027 0
0.00169927 -0.00526235 0
0.00169174 -0.00524929 0
0.0016862 -0.00522733 0
0.00169613 -0.00525979 0
0.00169098 -0.00524812 0
0.00168778 -0.00523441 0
0.00192403 -0.00539585 0
0.0017101 -0.0052854 0
0.00170305 -0.00527654 0
0.00180625 -0.0053681 0
0.00169018 -0.00524487 0
0.00169293 -0.00525592 0
0.00169765 -0.00527034 0
0.00169265 -0.00525537 0
0.00170669 -0.00529082 0
0.00172258 -0.00531419 0
0.00171446 -0.00530468 0
0.0017238 -0.00532065 0
0.00169631 -0.00527062 0
0.00169371 -0.00526172 0
0.00188025 -0.00542336 0
0.00172501 -0.00532713 0
0.00170694 -0.00530127 0
0.00170006 -0.00528591 0
0.00177347 -0.00537715 0
0.00171158 -0.00531133 0
0.00169666 -0.00527584 0
0.00170489 -0.00529989 0
0.00172682 -0.00533674 0
0.00182029 -0.00541641 0
0.00172054 -0.00533298 0
0.00172862 -0.0053464 0
0.00170551 -0.00530771 0
0.00170115 -0.0052967 0
0.00171609 -0.00533199 0
0.00174157 -0.0053697 0
0.00173118 -0.00536048 0
0.00170058 -0.0053028 0
0.00171104 -0.00532953 0
0.00170197 -0.00530988 0
0.00174354 -0.00538273 0
0.00170793 -0.00532703 0
0.00170337 -0.00531697 0
0.00173367 -0.00537467 0
0.00170547 -0.0053274 0
0.00172174 -0.00536112 0
0.00172835 -0.00537393 0
0.00171883 -0.00536003 0
0.0017076 -0.00533784 0
0.0017464 -0.00540209 0
0.00183632 -0.00547375 0
0.00173703 -0.00539503 0
0.00175909 -0.00542474 0
0.0019483 -0.00550338 0
0.00171074 -0.00535298 0
0.00171792 -0.0053704 0
0.00175988 -0.00543128 0
0.00198974 -0.00547046 0
0.00172663 -0.00539048 0
0.00171392 -0.00536814 0
0.00176066 -0.00543783 0
0.00170703 -0.005358 0
0.00174019 -0.00541556 0
0.00175037 -0.00543045 0
0.00201362 -0.00540147 0
0.00176179 -0.00544754 0
0.00170971 -0.00537234 0
0.00171853 -0.00538978 0
0.00180936 -0.00549536 0
0.00176291 -0.00545729 0
0.0018518 -0.00553128 0
0.00173723 -0.00543223 0
0.0017137 -0.00539335 0
0.0017232 -0.00541144 0
0.00174416 -0.00544455 0
0.0017645 -0.0054715 0
0.00173215 -0.00543114 0
0.00178039 -0.00549703 0
0.00175548 -0.00547142 0
0.00191586 -0.00557117 0
0.00176603 -0.00548579 0
0.00171959 -0.00542377 0
0.00172979 -0.00544179 0
0.00171096 -0.00541324 0
0.00178154 -0.00551029 0
0.00191713 -0.00475056 0
0.00174764 -0.00547382 0
0.00171224 -0.00542052 0
0.00171354 -0.00542779 0
0.0017681 -0.00550629 0
0.00171544 -0.00543841 0
0.00173641 -0.00547214 0
0.00178319 -0.00552996 0
0.00171735 -0.00544902 0
0.00172816 -0.00546715 0
0.00186944 -0.00560057 0
0.00177001 -0.00552694 0
0.00197085 -0.00561052 0
0.00172013 -0.00546434 0
0.00175155 -0.00551445 0
0.00156718 -0.00355949 0
0.00179998 -0.00556908 0
0.00176128 -0.00552978 0
0.00178543 -0.00555871 0
0.00172293 -0.00547965 0
0.0018004 -0.00557576 0
0.00174549 -0.00551385 0
0.00180081 -0.00558244 0
0.0017724 -0.00555608 0
0.00172695 -0.00550145 0
0.0018014 -0.00559234 0
0.00171293 -0.00548674 0
0.00174033 -0.00552794 0
0.00180197 -0.00560227 0
0.00171544 -0.00550163 0
0.001731 -0.00552325 0
0.0017545 -0.0055555 0
0.0018495 -0.00564678 0
0.0017882 -0.00560015 0
0.00177445 -0.0055855 0
0.00180275 -0.00561673 0
0.00188619 -0.00567005 0
0.0017191 -0.00552322 0
0.00173669 -0.00555377 0
0.00180348 -0.00563125 0
0.00182336 -0.00566222 0
0.00172441 -0.00555425 0
0.00176646 -0.00561163 0
0.00180443 -0.00565206 0
0.0017424 -0.00558427 0
0.00177663 -0.00562633 0
0.00204137 -0.00555365 0
0.00182382 -0.00567577 0
0.00175704 -0.00561148 0
0.00194977 -0.00572881 0
0.00171195 -0.00556079 0
0.0019915 -0.0057198 0
0.00179111 -0.00565904 0
0.00180526 -0.00567299 0
0.00171318 -0.00556845 0
0.00182445 -0.00569585 0
0.00173199 -0.00559825 0
0.0017144 -0.00557607 0
0.00175023 -0.0056262 0
0.00171618 -0.0055871 0
0.00190511 -0.00575429 0
0.00177812 -0.00566759 0
0.00171795 -0.00559808 0
0.00180621 -0.00570251 0
0.00182521 -0.00572516 0
0.0017205 -0.00561384 0
0.00175802 -0.00566808 0
0.00172305 -0.00562955 0
0.00184471 -0.00575516 0
0.00174263 -0.00565968 0
0.0018448 -0.00576199 0
0.0018069 -0.00573225 0
0.00184489 -0.00576883 0
0.00172667 -0.00565181 0
0.001845 -0.00577895 0
0.00182594 -0.00576729 0
0.00177898 -0.00572389 0
0.00179304 -0.00574152 0
0.00173028 -0.00567403 0
0.00184509 -0.00578909 0
0.00176841 -0.00572454 0
0.00170691 -0.00565808 0
0.00192274 -0.00583857 0
0.00184517 -0.00580384 0
0.00180738 -0.00577349 0
0.00170934 -0.00567391 0
0.00189274 -0.00583861 0
0.00173533 -0.00570502 0
0.00201033 -0.00582872 0
0.00184521 -0.00581865 0
0.00203918 -0.00575929 0
0.00175716 -0.00574394 0
0.00171281 -0.00569651 0
0.00174036 -0.00573596 0
0.00177861 -0.00578084 0
0.00184519 -0.00583983 0
0.00182619 -0.00582701 0
0.00180733 -0.00581513 0
0.00171773 -0.00572861 0
0.00186947 -0.00587302 0
0.00184506 -0.00586112 0
0.00198158 -0.00589926 0
0.00174724 -0.0057784 0
0.00186932 -0.00588687 0
0.00206192 -0.00570748 0
0.00172464 -0.00577377 0
0.00184471 -0.00589109 0
0.00186904 -0.00590737 0
0.00169839 -0.00575657 0
0.00194229 -0.00594071 0
0.00179176 -0.00585524 0
0.00180638 -0.00587191 0
0.00175405 -0.00582074 0
0.0016996 -0.00576481 0
0.0017008 -0.00577301 0
0.0017763 -0.00585721 0
0.00170251 -0.00578465 0
0.00186849 -0.00593724 0
0.00184415 -0.00592124 0
0.00182494 -0.00591041 0
0.0017042 -0.00579624 0
0.00173418 -0.00583641 0
0.00202733 -0.00594011 0
0 0 0
0.0017066 -0.00581267 0
0.00176313 -0.00587774 0
0.00170899 -0.00582902 0
0.00180445 -0.0059293 0
0.00189171 -0.00599043 0
0.00157835 -0.00367789 0
0.00184301 -0.00596301 0
0.00186741 -0.00598011 0
0.00189152 -0.00599741 0
0.00171234 -0.005852 0
0.00189131 -0.00600439 0
0.00189099 -0.00601471 0
0.00171566 -0.00587489 0
0.00177205 -0.00593454 0
0.00189065 -0.00602505 0
0.00196006 -0.00604258 0
0.00174705 -0.00592189 0
0.00184145 -0.0060051 0
0.00189012 -0.00604007 0
0.00172026 -0.00590663 0
0.00186524 -0.0060407 0
0.00188954 -0.00605514 0
0.0016831 -0.00588398 0
0.001937 -0.0060774 0
0.00180038 -0.00600622 0
0.00182018 -0.00602512 0
0.0017248 -0.00593827 0
0.00168553 -0.00590123 0
0.00188864 -0.00607667 0
0.00178355 -0.00600951 0
0.00201079 -0.00608556 0
0.00168891 -0.00592533 0
0.00183864 -0.00606242 0
0.00204238 -0.00605095 0
0.00188766 -0.00609829 0
0.00173096 -0.00598146 0
0.00207984 -0.00585972 0
0.0016936 -0.00595901 0
0.00191648 -0.00613609 0
0.00176386 -0.00603639 0
0.00188613 -0.00612869 0
0.00173703 -0.00602449 0
0.00191577 -0.00615018 0
0.00186096 -0.00612506 0
0.00179468 -0.00608407 0
0.00194856 -0.00504249 0
0.00197919 -0.00616524 0
0.00183504 -0.00612029 0
0.00170006 -0.00600581 0
0.00191468 -0.00617102 0
0.00188443 -0.00615923 0
0.00174507 -0.00608222 0
0.00191296 -0.00620135 0
0.00166367 -0.00601334 0
0.00207399 -0.00604654 0
0.0016649 -0.00602245 0
0.00188178 -0.00620147 0
0.00170881 -0.00607013 0
0.00166612 -0.0060315 0
0.00166781 -0.00604405 0
0.00205572 -0.0061647 0
0.00180853 -0.00618044 0
0.00166948 -0.00605653 0
0.00182903 -0.00619774 0
0.00175292 -0.00613966 0
0.00191025 -0.00624481 0
0.0016718 -0.00607388 0
0.00187877 -0.00624397 0
0.00178495 -0.00618655 0
0.0016741 -0.00609115 0
0.00185267 -0.00624074 0
0.00193804 -0.00628063 0
0.00193758 -0.00628771 0
0.00167726 -0.00611509 0
0.00172043 -0.00615727 0
0.00199594 -0.00628707 0
0.00193711 -0.00629479 0
0.0019364 -0.00630526 0
0.00168039 -0.0061389 0
0.00176302 -0.00621529 0
0.00190588 -0.0063061 0
0.00193567 -0.00631574 0
0.00187414 -0.00630177 0
0.00182164 -0.00627604 0
0.00193458 -0.00633096 0
0.00203662 -0.00629083 0
0.00168465 -0.00617162 0
0.00209131 -0.00601116 0
0.00193346 -0.00634621 0
0.00168885 -0.00620416 0
0.00193178 -0.006368 0
0.00197895 -0.00636795 0
0.000920169 -0.00206929 0
0.00177276 -0.00629038 0
0.00206699 -0.00627764 0
0.00186884 -0.00636001 0
0.00163417 -0.00617779 0
0.00173539 -0.00627326 0
0.00193003 -0.00638985 0
0.00169447 -0.0062483 0
0.00189876 -0.0063912 0
0.00163669 -0.00619717 0
0.00158168 -0.00379298 0
0.00192743 -0.00642053 0
0.00164007 -0.00622341 0
0.00181004 -0.00637899 0
0.00169997 -0.00629217 0
0.00183725 -0.0063969 0
0.00164465 -0.00625925 0
0.00201306 -0.00643212 0
0.00192469 -0.00645133 0
0.00196061 -0.00645566 0
0.00178486 -0.00638725 0
0.00186079 -0.00643786 0
0.00195941 -0.00646989 0
0.00170719 -0.00635074 0
0.0016508 -0.0063082 0
0.00195759 -0.00649093 0
0.00192064 -0.00649387 0
0.00175393 -0.0064246 0
0.00188703 -0.00650753 0
0.00195484 -0.00652153 0
0.00207662 -0.00639412 0
0.00171419 -0.0064089 0
0.0019163 -0.00653662 0
0.00179629 -0.00648319 0
0.00165899 -0.0063746 0
0.00185158 -0.00651642 0
0.00210044 -0.00616094 0
0.00159975 -0.00634502 0
0.00195066 -0.0065653 0
0.00160105 -0.00635543 0
0.00160234 -0.00636575 0
0.00160406 -0.00637958 0
0.00172313 -0.00648516 0
0.00209525 -0.00632959 0
0.00205792 -0.00651809 0
0.00190993 -0.00659465 0
0.00160576 -0.00639331 0
0.00202711 -0.00657552 0
0.00166963 -0.00646363 0
0.00160804 -0.00641193 0
0.00194431 -0.00662693 0
0.0016103 -0.00643043 0
0.00197908 -0.00662839 0
0.00197839 -0.00663551 0
0.00197769 -0.00664265 0
0.00180987 -0.00660425 0
0.00183789 -0.00661956 0
0.00161335 -0.0064556 0
0.00173169 -0.00656074 0
0.001903 -0.00665305 0
0.00197664 -0.00665318 0
0.00197558 -0.00666372 0
0.00161635 -0.0064806 0
0.00208409 -0.0065095 0
0.00186771 -0.00666404 0
0.00177578 -0.0066177 0
0.001974 -0.00667902 0
0.00162036 -0.00651447 0
0.00197239 -0.00669435 0
0.00168311 -0.00658116 0
0.0019346 -0.0067123 0
0.00197003 -0.00671622 0
0.0016243 -0.00654811 0
0.00189293 -0.00673095 0
0.00201387 -0.00671217 0
0.00174225 -0.0066579 0
0.0019676 -0.00673815 0
0 0 0
0.00182232 -0.00672378 0
0.0016295 -0.00659326 0
0.00196407 -0.00676891 0
0.00210448 -0.00630809 0
0.00155151 -0.0065536 0
0.00195458 -0.00533051 0
0.00163456 -0.00663806 0
0.00204011 -0.00674362 0
0.0019604 -0.00679976 0
0.00155423 -0.00657608 0
0.00188187 -0.00680944 0
0.00157465 -0.00390926 0
0.00175216 -0.00675396 0
0.00155772 -0.00660535 0
0.00208991 -0.00662921 0
0.00191965 -0.00682866 0
0.00169954 -0.00673343 0
0.00195512 -0.00684231 0
0.00164111 -0.00669741 0
0.00199646 -0.00683223 0
0.00156229 -0.00664409 0
0.00199484 -0.00684649 0
0.00199241 -0.00686755 0
0.00194957 -0.00688502 0
0.00183629 -0.00687113 0
0.00164742 -0.00675623 0
0.00179983 -0.0068581 0
0.00156826 -0.00669575 0
0.00207303 -0.00676987 0
0.00198876 -0.00689815 0
0.001866 -0.0069123 0
0.00176386 -0.00687482 0
0.00194164 -0.00694292 0
0.00157601 -0.00676456 0
0.00165539 -0.00683288 0
0.00198334 -0.00694188 0
0.00189658 -0.00698468 0
0.00209351 -0.00674749 0
0.00210417 -0.00660682 0
0.00204929 -0.00690896 0
0.00171857 -0.00692653 0
0.00193321 -0.0070011 0
0.00210585 -0.00645374 0
0.00149759 -0.00676576 0
0.00197529 -0.00700336 0
0.00166296 -0.00690871 0
0.00149903 -0.00677802 0
0.00158588 -0.00685552 0
0.00184849 -0.00701604 0
0.00150044 -0.00679019 0
0.00177452 -0.00699392 0
0.00150224 -0.0068058 0
0.00150402 -0.00682131 0
0.00150633 -0.00684161 0
0.00200874 -0.00703207 0
0.00192127 -0.00707858 0
0.00200785 -0.00703918 0
0.00200696 -0.0070463 0
0.0015086 -0.00686177 0
0.00200563 -0.00705679 0
0.00196334 -0.00708834 0
0.0016722 -0.0070057 0
0.00200429 -0.0070673 0
0.00151158 -0.00688845 0
0.00200231 -0.00708255 0
0.00159812 -0.00697424 0
0.00151451 -0.00691494 0
0.0020003 -0.00709781 0
0.00199737 -0.00711958 0
0.00209529 -0.00687096 0
0.00190845 -0.00715651 0
0.00151833 -0.0069501 0
0.00182382 -0.00714949 0
0.00178638 -0.00714039 0
0.00199438 -0.00714139 0
0.00168081 -0.00710141 0
0.00152207 -0.00698499 0
0.00186106 -0.00719038 0
0.00203582 -0.00710793 0
0.00199008 -0.00717196 0
0.00173916 -0.00716564 0
0.00194556 -0.00720389 0
0.00152691 -0.00703109 0
0.00205562 -0.00709914 0
0.00198565 -0.0072026 0
0.0021036 -0.00659567 0
0.00161276 -0.00712666 0
0.00156219 -0.00402055 0
0.0015316 -0.00707679 0
0.00189049 -0.00725844 0
0.00207976 -0.00704775 0
0.00197934 -0.00724481 0
0.00169086 -0.00722134 0
0.00142607 -0.0070249 0
0.00179664 -0.00728416 0
0.00153758 -0.00713662 0
0.00142911 -0.0070518 0
0.00197279 -0.00728714 0
0.00209486 -0.00699266 0
0.00143283 -0.00708523 0
0.00201741 -0.00726158 0
0.00201546 -0.00727572 0
0.00154332 -0.00719583 0
0.00187108 -0.00736104 0
0.00191912 -0.00735833 0
0.0014375 -0.0071278 0
0.00201254 -0.00729661 0
0.00196355 -0.00734444 0
0.00169992 -0.0073393 0
0.0020082 -0.00732693 0
0.00210189 -0.00687735 0
0.00162939 -0.00731847 0
0.00144338 -0.00718278 0
0.00155045 -0.00727231 0
0.00195387 -0.00740194 0
0.00200181 -0.00737023 0
0.00193764 -0.00560819 0
0.00180707 -0.00745675 0
0.00205742 -0.0072851 0
0.00145078 -0.00725422 0
0.00175928 -0.00745406 0
0.00209814 -0.00673614 0
0.00155719 -0.00734785 0
0.00184427 -0.00749276 0
0.00199243 -0.00743101 0
0.00194034 -0.0074784 0
0.00209228 -0.00712034 0
0.00170987 -0.00748387 0
0.00145999 -0.00734683 0
0 0 0
0.0015653 -0.0074438 0
0.00187985 -0.00756119 0
0.00134835 -0.00728812 0
0.00197873 -0.00751489 0
0.00192604 -0.00755518 0
0.00134998 -0.00730297 0
0.00135159 -0.00731773 0
0.000902243 -0.00221143 0
0.00202002 -0.0074849 0
0.00135353 -0.00733576 0
0.00164699 -0.0075544 0
0.002019 -0.00749193 0
0.00201797 -0.00749896 0
0.00135545 -0.00735367 0
0.00181521 -0.00762539 0
0.00201644 -0.00750933 0
0.00147116 -0.00746592 0
0.00157279 -0.00753832 0
0.00135784 -0.00737613 0
0.00201489 -0.0075197 0
0.00171836 -0.00762551 0
0.00201262 -0.00753475 0
0.00136018 -0.00739844 0
0.00201032 -0.00754981 0
0.00190628 -0.00765541 0
0.00136313 -0.00742694 0
0.00195874 -0.00762866 0
0.00200699 -0.00757128 0
0.00207548 -0.00735179 0
0.00154011 -0.0041303 0
0.00136603 -0.00745524 0
0.00208751 -0.00724586 0
0.0020036 -0.00759277 0
0.00209025 -0.00687243 0
0.0013697 -0.00749175 0
0.00199874 -0.00762289 0
0.00158143 -0.00765611 0
0.0020544 -0.00749437 0
0.00203836 -0.00754835 0
0.00137328 -0.00752797 0
0.00199376 -0.00765304 0
0.00148424 -0.007617 0
0.00188523 -0.00775611 0
0.0013778 -0.00757478 0
0.00177583 -0.00779234 0
0.00198671 -0.00769456 0
0.00172682 -0.00779504 0
0.00208931 -0.00714073 0
0.00192964 -0.00778028 0
0.00182205 -0.00782279 0
0.00138217 -0.00762118 0
0.00197944 -0.00773614 0
0.00158913 -0.00777177 0
0.00166372 -0.00783735 0
0.00138763 -0.00768089 0
0.00196926 -0.00779237 0
0.00185655 -0.00788511 0
0.00208016 -0.00737799 0
0.00124986 -0.00760231 0
0.0014988 -0.0078053 0
0.00201653 -0.00773413 0
0.00139285 -0.00773996 0
0.00125336 -0.00763518 0
0.00201437 -0.00774804 0
0.00195868 -0.00784872 0
0.00201114 -0.00776857 0
0.00207881 -0.00700704 0
0.00125744 -0.00767411 0
0.00159747 -0.00791288 0
0.00173323 -0.0079604 0
0.00200636 -0.00779836 0
0.00139924 -0.00781527 0
0.0012623 -0.0077215 0
0.00194402 -0.00792355 0
0.00188743 -0.00797873 0
0.00199934 -0.00784086 0
0.0020463 -0.00769761 0
0.00182586 -0.00801472 0
0.00126818 -0.00778037 0
0.00140524 -0.0078896 0
0.00198913 -0.00790045 0
0.00192866 -0.00799855 0
0.00160448 -0.00805089 0
0.00127531 -0.00785444 0
0.00207064 -0.0075075 0
0.00151389 -0.00803509 0
0.00141236 -0.00798309 0
0.00197432 -0.00798254 0
0.00151482 -0.0042343 0
0.00190036 -0.00587076 0
0.00173831 -0.00815349 0
0.00190763 -0.00809631 0
0.00205734 -0.00767995 0
0.00128391 -0.00794805 0
0.00167689 -0.00816754 0
0.00178475 -0.00817748 0
0.00206565 -0.00713744 0
0.00141891 -0.00807511 0
0.00195296 -0.00809365 0
0.00161129 -0.00821549 0
0.00200635 -0.0079746 0
0.00114523 -0.00792026 0
0.00200526 -0.00798149 0
0.00200415 -0.00798837 0
0.00188545 -0.00819433 0
0.00206719 -0.00739664 0
0.00114713 -0.0079385 0
0.00182665 -0.00823358 0
0.00200251 -0.00799853 0
0.00129409 -0.00806603 0
0.00200085 -0.0080087 0
0.001149 -0.00795666 0
0.00199843 -0.00802344 0
0.00115115 -0.00797776 0
0.00199597 -0.00803818 0
0.00142635 -0.00818891 0
0.00115327 -0.00799876 0
0.00199243 -0.00805919 0
0.00115577 -0.00802386 0
0.00198882 -0.00808021 0
0.00205804 -0.00764388 0
0.00115823 -0.00804883 0
0.00203156 -0.00792076 0
0.00174072 -0.00834093 0
0.00198367 -0.00810965 0
0.00152787 -0.00830889 0
0.0011612 -0.00807938 0
0.00192226 -0.00824131 0
0.00197841 -0.0081391 0
0.00185548 -0.00831964 0
0.00130576 -0.00821338 0
0.0011641 -0.00810973 0
0.00143295 -0.00830054 0
0.00161629 -0.00837578 0
0.00201565 -0.00802134 0
0 0 0
0.00197099 -0.00817962 0
0.00116764 -0.0081475 0
0.00204902 -0.00726568 0
0.00196336 -0.00822016 0
0.00117108 -0.00818499 0
0.00117531 -0.00823204 0
0.00195272 -0.00827493 0
0.00182371 -0.00844527 0
0.00143999 -0.00843592 0
0.00117938 -0.00827868 0
0.00131852 -0.00839486 0
0.00194171 -0.00832975 0