# vtk DataFile Version 3.0
File generated from DClib
ASCII

DATASET UNSTRUCTURED_GRID
POINTS 1909 float
50 0 0 
48.75 0 0 
50 1.66667 0 
47.5 0 0 
50 3.33333 0 
46.25 0 0 
50 5 0 
45 0 0 
43.75 0 0 
50 6.66667 0 
43 2 0 
42.5 0 0 
50 8.33333 0 
43 4.66667 0 
41.25 0 0 
41.075 2 0 
50 10 0 
40 0 0 
43 7.33333 0 
39.15 2 0 
38.75 0 0 
43 10 0 
37.5 0 0 
37.225 2 0 
36.25 0 0 
36 4 0 
35.3 2 0 
36 5 0 
35 0 0 
35.325 4 0 
36 6 0 
36 7 0 
34.65 4 0 
36 8 0 
33.75 0 0 
33.975 4 0 
36 9 0 
33.375 2 0 
33.3 4 0 
36 10 0 
32.5 0 0 
32.625 4 0 
33 6 0 
31.95 4 0 
33 7.45455 0 
31.45 2 0 
31.25 0 0 
31.95 6 0 
33 8.79545 0 
31.275 4 0 
33 10 0 
30.6 4 0 
30 0 0 
30.9 6 0 
29.925 4 0 
29.525 2 0 
29.85 6 0 
29.25 4 0 
28.75 0 0 
30 8 0 
30 8.45455 0 
28.575 4 0 
29.625 8 0 
30 8.90909 0 
28.8 6 0 
30 9.25 0 
29.782 8.90909 0 
30 9.59091 0 
29.9487 9.59091 0 
29.25 8 0 
29.7462 9.25 0 
30 9.79545 0 
29.897 9.59091 0 
29.564 8.90909 0 
29.9547 9.79545 0 
29.3462 8.45455 0 
29.84 9.59091 0 
30 10 0 
29.8975 9.79545 0 
29.9882 10 0 
29.9902 10.0098 0 
29.7827 9.59091 0 
29.9765 10 0 
29.9804 10.0196 0 
29.9667 10.0098 0 
29.9591 10 0 
29.9686 10.0196 0 
29.9659 10.0341 0 
29.9569 10.0196 0 
29.9418 10 0 
29.9395 10.0196 0 
29.9515 10.0485 0 
29.932 10.0098 0 
29.9424 10.0341 0 
29.8241 9.79545 0 
29.7181 9.59091 0 
29.9166 10 0 
29.9397 10.0485 0 
29.9222 10.0196 0 
29.9279 10.0485 0 
29.9305 10.0695 0 
29.8914 10 0 
29.9077 10.0341 0 
27.9 4 0 
29.897 10.0196 0 
29.9106 10.0485 0 
29.8817 10.0098 0 
29.907 10.0695 0 
29.8933 10.0485 0 
29.9095 10.0905 0 
29.8719 10.0196 0 
27.6 2 0 
29.8556 10 0 
29.8978 10.0905 0 
29.6531 9.59091 0 
29.3437 8.90909 0 
27.5 0 0 
29.8681 10.0485 0 
29.886 10.0905 0 
29.8574 10.0341 0 
29.4839 9.25 0 
29.8723 10.0695 0 
29.7289 9.79545 0 
29.836 10.0196 0 
29.8687 10.0905 0 
29.8197 10 0 
29.8797 10.1203 0 
29.843 10.0485 0 
29.8513 10.0905 0 
29.81 10.0098 0 
29.8561 10.1203 0 
29.8002 10.0196 0 
29.8221 10.0695 0 
29.8072 10.0485 0 
29.8262 10.0905 0 
29.5782 9.59091 0 
29.8498 10.1502 0 
29.7695 10 0 
29.7858 10.0341 0 
29.838 10.1502 0 
29.8215 10.1203 0 
29.8011 10.0905 0 
29.8262 10.1502 0 
29.7714 10.0485 0 
28.875 8 0 
29.75 10.0196 0 
29.8089 10.1502 0 
29.7654 10.0905 0 
29.7193 10 0 
29.7916 10.1502 0 
29.7505 10.0695 0 
29.8079 10.1921 0 
29.7713 10.1203 0 
29.7096 10.0098 0 
29.6047 9.79545 0 
29.503 9.59091 0 
29.7213 10.0485 0 
29.7665 10.1502 0 
29.6999 10.0196 0 
29.7844 10.1921 0 
29.7296 10.0905 0 
29.6856 10.0341 0 
29.7414 10.1502 0 
29.7497 10.1921 0 
29.6503 10 0 
29.7661 10.2339 0 
29.6712 10.0485 0 
29.6999 10.1203 0 
29.7543 10.2339 0 
29.6796 10.0905 0 
29.7057 10.1502 0 
29.7425 10.2339 0 
29.1235 8.90909 0 
29.6309 10.0196 0 
29.6504 10.0695 0 
29.4146 9.59091 0 
29.7252 10.2339 0 
29.6996 10.1921 0 
29.6701 10.1502 0 
29.7079 10.2339 0 
29.6296 10.0905 0 
29.5813 10 0 
29.6023 10.0485 0 
29.5716 10.0098 0 
29.6828 10.2339 0 
29.7086 10.2914 0 
29.2101 9.25 0 
29.562 10.0196 0 
29.6201 10.1502 0 
29.6578 10.2339 0 
29.4428 9.79545 0 
29.5999 10.1203 0 
29.6849 10.2914 0 
29.6283 10.1921 0 
29.5477 10.0341 0 
29.3259 9.59091 0 
29.5608 10.0905 0 
29.5335 10.0485 0 
29.6221 10.2339 0 
29.6503 10.2914 0 
29.5702 10.1502 0 
29.4881 10 0 
29.5128 10.0695 0 
29.6511 10.3489 0 
29.5866 10.2339 0 
29.6392 10.3489 0 
29.4689 10.0196 0 
29.6002 10.2914 0 
29.6273 10.3489 0 
29.4921 10.0905 0 
29.61 10.3489 0 
29.5286 10.1921 0 
29.5016 10.1502 0 
29.5368 10.2339 0 
29.5926 10.3489 0 
29.4405 10.0485 0 
29.2199 9.59091 0 
29.4626 10.1203 0 
29.3949 10 0 
28.9 8.90909 0 
29.5676 10.3489 0 
29.5291 10.2914 0 
29.3853 10.0098 0 
28.6923 8.45455 0 
29.487 10.2339 0 
29.5426 10.3489 0 
29.3758 10.0196 0 
29.5734 10.4266 0 
29.4331 10.1502 0 
29.3993 10.0905 0 
28.5 8 0 
29.3617 10.0341 0 
29.5496 10.4266 0 
29.5071 10.3489 0 
29.2327 9.79545 0 
29.3475 10.0485 0 
29.1136 9.59091 0 
29.4187 10.2339 0 
29.5148 10.4266 0 
29.4716 10.3489 0 
29.3918 10.1921 0 
29.3271 10.0695 0 
29.4298 10.2914 0 
29.2714 10 0 
29.3406 10.1502 0 
28.9208 9.25 0 
29.3066 10.0905 0 
29.4648 10.4266 0 
29.422 10.3489 0 
29.4958 10.5042 0 
29.2524 10.0196 0 
27.75 6 0 
29.3504 10.2339 0 
29.4837 10.5042 0 
29.4718 10.5042 0 
29.2774 10.1203 0 
29.4543 10.5042 0 
29.3724 10.3489 0 
29.2244 10.0485 0 
29.4369 10.5042 0 
29.3938 10.4266 0 
28.9853 9.59091 0 
29.2481 10.1502 0 
28.6766 8.90909 0 
29.4119 10.5042 0 
29.2934 10.2914 0 
27.225 4 0 
29.148 10 0 
29.2582 10.2339 0 
29.1837 10.0905 0 
29.3869 10.5042 0 
29.1385 10.0098 0 
29.3044 10.3489 0 
29.1291 10.0196 0 
29.2072 10.1921 0 
29.3514 10.5042 0 
29.1152 10.0341 0 
29.3929 10.6071 0 
29.2949 10.4266 0 
29.1013 10.0485 0 
29.3686 10.6071 0 
29.316 10.5042 0 
29.2364 10.3489 0 
28.9623 9.79545 0 
29.1257 10.1502 0 
29.1662 10.2339 0 
29.0811 10.0695 0 
28.8566 9.59091 0 
29.3336 10.6071 0 
29.2666 10.5042 0 
29.0609 10.0905 0 
28.9875 10 0 
29.2835 10.6071 0 
29.1448 10.3489 0 
29.0321 10.1203 0 
29.2173 10.5042 0 
29.1098 10.2914 0 
28.125 8 0 
28.9688 10.0196 0 
29.1594 10.4266 0 
28.611 9.25 0 
29.29 10.71 0 
28.4486 8.90909 0 
29.0443 10.2339 0 
29.0033 10.1502 0 
29.2777 10.71 0 
28.9413 10.0485 0 
29.2128 10.6071 0 
29.2655 10.71 0 
29.1497 10.5042 0 
29.2478 10.71 0 
28.7003 9.59091 0 
29.0533 10.3489 0 
29.2303 10.71 0 
28.9629 10.1921 0 
28.9013 10.0905 0 
29.2051 10.71 0 
29.0822 10.5042 0 
29.1801 10.71 0 
28.827 10 0 
29.1144 10.6071 0 
28.8177 10.0098 0 
28.9225 10.2339 0 
28.8085 10.0196 0 
29.1447 10.71 0 
28.7949 10.0341 0 
28.8443 10.1502 0 
28.977 10.4266 0 
28.9322 10.3489 0 
29.1094 10.71 0 
28.7813 10.0485 0 
28.9912 10.5042 0 
29.1562 10.8438 0 
28.5436 9.59091 0 
28.7615 10.0695 0 
28.8669 10.2914 0 
29.1313 10.8438 0 
28.6184 9.79545 0 
29.0602 10.71 0 
28.2207 8.90909 0 
28.7418 10.0905 0 
28.0378 8.45455 0 
28.9798 10.6071 0 
29.0958 10.8438 0 
29.0112 10.71 0 
28.9005 10.5042 0 
28.7136 10.1203 0 
28.7644 10.2339 0 
28.8113 10.3489 0 
29.0454 10.8438 0 
28.6223 10 0 
28.6854 10.1502 0 
28.2746 9.25 0 
28.9441 10.71 0 
28.6042 10.0196 0 
27.75 8 0 
28.9747 10.8438 0 
28.6459 10.1921 0 
28.5773 10.0485 0 
29.0225 10.9775 0 
28.3532 9.59091 0 
28.7804 10.5042 0 
28.736 10.4266 0 
28.8772 10.71 0 
29.0097 10.9775 0 
28.9971 10.9775 0 
28.799 10.6071 0 
28.9791 10.9775 0 
28.5384 10.0905 0 
28.6064 10.2339 0 
28.6543 10.3489 0 
28.9611 10.9775 0 
28.8769 10.8438 0 
27.9867 8.90909 0 
26.25 0 0 
28.9358 10.9775 0 
28.7871 10.71 0 
28.9106 10.9775 0 
28.6607 10.5042 0 
28.4177 10 0 
26.55 4 0 
28.552 10.2914 0 
28.483 10.1502 0 
28.4087 10.0098 0 
28.8751 10.9775 0 
28.3998 10.0196 0 
28.3866 10.0341 0 
28.8399 10.9775 0 
28.6974 10.71 0 
28.3735 10.0485 0 
28.1625 9.59091 0 
28.7436 10.8438 0 
28.4976 10.3489 0 
28.3543 10.0695 0 
28.791 10.9775 0 
28.4052 10.2339 0 
28.3352 10.0905 0 
28.8519 11.1481 0 
28.1869 9.79545 0 
28.5607 10.6071 0 
28.5053 10.5042 0 
28.7423 10.9775 0 
28.8258 11.1481 0 
28.308 10.1203 0 
28.5787 10.71 0 
27.904 9.25 0 
28.7893 11.1481 0 
28.424 10.4266 0 
27.7528 8.90909 0 
28.2807 10.1502 0 
28.6758 10.9775 0 
27.375 8 0 
28.7383 11.1481 0 
28.1619 10 0 
28.5649 10.8438 0 
28.2425 10.1921 0 
28.6096 10.9775 0 
28.1444 10.0196 0 
28.298 10.3489 0 
28.4605 10.71 0 
26.7 6 0 
27.9315 9.59091 0 
28.3503 10.5042 0 
28.6676 11.1481 0 
28.1187 10.0485 0 
28.2042 10.2339 0 
28.5207 10.9775 0 
28.0813 10.0905 0 
28.6814 11.3186 0 
27.3818 8.45455 0 
28.6679 11.3186 0 
28.1516 10.2914 0 
28.5703 11.1481 0 
28.6544 11.3186 0 
28.6358 11.3186 0 
27.5109 8.90909 0 
28.3072 10.71 0 
28.6173 11.3186 0 
28.2524 10.6071 0 
28.4322 10.9775 0 
28.028 10.1502 0 
28.5915 11.3186 0 
28.0989 10.3489 0 
28.33 10.8438 0 
28.5658 11.3186 0 
28.153 10.5042 0 
27.9061 10 0 
27.8975 10.0098 0 
28.5303 11.3186 0 
28.4384 11.1481 0 
27.7002 9.59091 0 
27.889 10.0196 0 
27.8765 10.0341 0 
28.4949 11.3186 0 
28.3154 10.9775 0 
27.9532 10.2339 0 
27.8639 10.0485 0 
28.0276 10.4266 0 
28.1544 10.71 0 
27.8457 10.0695 0 
27.4909 9.25 0 
28.4463 11.3186 0 
27 8 0 
27.8275 10.0905 0 
28.3979 11.3186 0 
27.8015 10.1203 0 
27.6542 9.79545 0 
25.675 2 0 
28.1991 10.9775 0 
27.2691 8.90909 0 
27.9563 10.5042 0 
28.4682 11.5318 0 
28.2625 11.1481 0 
27.7755 10.1502 0 
28.3322 11.3186 0 
27.8502 10.3489 0 
28.4401 11.5318 0 
25.875 4 0 
27.7391 10.1921 0 
28.4019 11.5318 0 
28.0268 10.8438 0 
28.2668 11.3186 0 
27.9602 10.71 0 
28.3498 11.5318 0 
27.4223 9.59091 0 
27.7026 10.2339 0 
27.5927 10 0 
28.0486 10.9775 0 
27.8616 10.6071 0 
27.5762 10.0196 0 
28.1794 11.3186 0 
28.2786 11.5318 0 
27.5519 10.0485 0 
27.6524 10.2914 0 
28.0319 11.1481 0 
27.7108 10.5042 0 
27.5167 10.0905 0 
27.0169 8.90909 0 
28.0924 11.3186 0 
27.6021 10.3489 0 
27.8988 10.9775 0 
28.1818 11.5318 0 
27.7667 10.71 0 
26.625 8 0 
28.255 11.745 0 
27.4664 10.1502 0 
28.2402 11.745 0 
28.2256 11.745 0 
28.2059 11.745 0 
27.978 11.3186 0 
26.7234 8.45455 0 
27.0259 9.25 0 
27.5342 10.4266 0 
28.1863 11.745 0 
27.1442 9.59091 0 
28.0516 11.5318 0 
28.1598 11.745 0 
27.3959 10.2339 0 
28.1334 11.745 0 
27.2793 10 0 
27.2714 10.0098 0 
27.2635 10.0196 0 
27.7086 10.9775 0 
27.6431 10.8438 0 
28.0975 11.745 0 
27.8643 11.3186 0 
27.4661 10.5042 0 
27.2518 10.0341 0 
27.2401 10.0485 0 
28.0617 11.745 0 
26.7648 8.90909 0 
27.5255 10.71 0 
27.7353 11.1481 0 
27.2231 10.0695 0 
28.0133 11.745 0 
27.2061 10.0905 0 
27.8791 11.5318 0 
27.2986 10.3489 0 
27.1818 10.1203 0 
27.9651 11.745 0 
27.3758 10.6071 0 
27.0077 9.79545 0 
27.7174 11.3186 0 
27.1576 10.1502 0 
25 0 0 
27.5193 10.9775 0 
27.9003 11.745 0 
27.1236 10.1921 0 
26.25 8 0 
27.9939 12.0061 0 
25.65 6 0 
27.8359 11.745 0 
26.8136 9.59091 0 
27.0896 10.2339 0 
27.9626 12.0061 0 
27.2853 10.71 0 
25.2 4 0 
27.5713 11.3186 0 
27.9218 12.0061 0 
26.4998 8.90909 0 
27.167 10.5042 0 
27.6541 11.5318 0 
27.0427 10.2914 0 
27.7503 11.745 0 
26.9033 10 0 
27.8677 12.0061 0 
26.8882 10.0196 0 
26.8659 10.0485 0 
26.9958 10.3489 0 
27.2836 10.9775 0 
27.6652 11.745 0 
27.3609 11.1481 0 
27.7955 12.0061 0 
26.499 9.25 0 
[...]
POINT_DATA 1909
SCALARS phi float 1
LOOKUP_TABLE default
VECTORS Displacement float
0 0 0
0 0 0
0 -0.00263102 0
0 0 0
0 -0.00363907 0
0 0 0
0 -0.00314275 0
0 0 0
0 0 0
0 -0.00128111 0
0.00765696 -0.0022945 0
0 0 0
0 0.00182583 0
0.0147329 -0.00127993 0
0 0 0
0.0103543 -0.00225109 0
0 0.00571864 0
0 0 0
0.0195024 0.00343953 0
0.0133167 -0.00228662 0
0 0 0
0.0220134 0.011334 0
0 0 0
0.016483 -0.00245829 0
0 0 0
0.0312183 -0.00152441 0
0.0196765 -0.00276889 0
0.036901 0.000329109 0
0 0 0
0.0334868 -0.00168554 0
0.0410198 0.00287677 0
0.0437041 0.00601951 0
0.0357121 -0.0018855 0
0.0451814 0.00933101 0
0 0 0
0.0379254 -0.00220621 0
0.0463209 0.0130681 0
0.0226907 -0.0031993 0
0.0400766 -0.00257397 0
0.0472827 0.0183662 0
0 0 0
0.0421193 -0.00301823 0
0.054007 0.00148219 0
0.0440586 -0.00350814 0
0.0592428 0.00688895 0
0.0253334 -0.00372483 0
0 0 0
0.0584867 -0.000315299 0
0.0617207 0.0140678 0
0.0458486 -0.00405287 0
0.0616643 0.0290725 0
0.0474921 -0.00463802 0
0 0 0
0.0622561 -0.00219293 0
0.0489708 -0.00526402 0
0.0274443 -0.00432416 0
0.06543 -0.00423804 0
0.0502703 -0.00592683 0
0 0 0
0.0766773 0.000491919 0
0.0788735 0.00212154 0
0.0513963 -0.00661713 0
0.0782453 -0.000878643 0
0.0810036 0.00406936 0
0.0679911 -0.00644205 0
0.0826096 0.00741929 0
0.0822359 0.00296506 0
0.0843855 0.012477 0
0.0846291 0.011337 0
0.079642 -0.00229716 0
0.0841242 0.00511088 0
0.0857551 0.0168761 0
0.0848866 0.0103856 0
0.0833639 0.00188572 0
0.086136 0.0159506 0
0.0818496 -0.000671501 0
0.0851332 0.00938301 0
0.0870643 0.0233094 0
0.0866148 0.0147471 0
0.0872269 0.0233029 0
0.129944 0.0467997 0
0.0853748 0.00848506 0
0.0873912 0.0231877 0
0.171907 0.0670583 0
0.125088 0.0436817 0
0.0876442 0.0230806 0
0.166642 0.0639327 0
0.175912 0.0652565 0
0.161443 0.0607575 0
0.0879039 0.022896 0
0.15397 0.0567989 0
0.176172 0.0636025 0
0.118741 0.0397295 0
0.170356 0.0612307 0
0.0872325 0.0133381 0
0.0856464 0.00761318 0
0.0882813 0.0224988 0
0.175698 0.0626264 0
0.147466 0.0533269 0
0.175189 0.0617841 0
0.17763 0.0631072 0
0.0886589 0.0220721 0
0.160934 0.0566779 0
0.0523241 -0.00734599 0
0.139608 0.0487509 0
0.173618 0.0607686 0
0.112199 0.034958 0
0.176894 0.0615153 0
0.171099 0.0593613 0
0.177513 0.0620479 0
0.133017 0.0448672 0
0.0288969 -0.00498326 0
0.0891582 0.0211912 0
0.177251 0.0612806 0
0.0859104 0.00681172 0
0.0844186 0.000768585 0
0 0 0
0.166525 0.056735 0
0.176939 0.0605072 0
0.148268 0.049913 0
0.0855478 0.00332634 0
0.174772 0.0589153 0
0.0880017 0.0117556 0
0.125558 0.0398541 0
0.176482 0.059287 0
0.0896273 0.0203303 0
0.177617 0.0608051 0
0.161129 0.0537708 0
0.176001 0.0580838 0
0.106134 0.0293701 0
0.177188 0.0592197 0
0.119551 0.0357316 0
0.168628 0.0543369 0
0.153283 0.0492036 0
0.174893 0.0564032 0
0.0862363 0.00601464 0
0.176982 0.0592085 0
0.0902045 0.0189497 0
0.133377 0.0409121 0
0.1768 0.0584101 0
0.176457 0.0568738 0
0.17332 0.0545699 0
0.176614 0.057612 0
0.145675 0.0449148 0
0.0809839 -0.00372831 0
0.113261 0.0307824 0
0.176304 0.0564399 0
0.169935 0.0518499 0
0.0907054 0.0176423 0
0.175963 0.0552689 0
0.156641 0.0471724 0
0.17621 0.0570396 0
0.17488 0.0533973 0
0.101304 0.0234642 0
0.0888812 0.00998132 0
0.0865643 0.00527737 0
0.136213 0.0390874 0
0.175442 0.0535524 0
0.108718 0.0269855 0
0.175871 0.0554395 0
0.165317 0.0487444 0
0.118675 0.0309981 0
0.174891 0.0518849 0
0.175345 0.053112 0
0.091307 0.0159505 0
0.17513 0.0547313 0
0.12798 0.03416 0
0.170161 0.0481724 0
0.174967 0.0539298 0
0.157792 0.0442119 0
0.173873 0.0495981 0
0.174802 0.053137 0
0.0853825 -0.000354714 0
0.104578 0.0228065 0
0.139522 0.0373357 0
0.0869798 0.00451182 0
0.174557 0.0519864 0
0.174523 0.0498921 0
0.172587 0.0473614 0
0.174315 0.0508632 0
0.1497 0.0397237 0
0.0917911 0.0143676 0
0.119061 0.0281715 0
0.0983247 0.0179663 0
0.173954 0.0492867 0
0.173702 0.0516313 0
0.0868534 0.00157866 0
0.101979 0.019714 0
0.169618 0.0443903 0
0.173585 0.0477716 0
0.0897917 0.00796349 0
0.158675 0.0406857 0
0.17341 0.0500921 0
0.173073 0.0456563 0
0.107243 0.0218974 0
0.0873979 0.00378619 0
0.13908 0.0337628 0
0.112509 0.0237508 0
0.173041 0.0456957 0
0.172979 0.0479352 0
0.165334 0.0411608 0
0.092375 0.0125875 0
0.1211 0.0264964 0
0.172177 0.0485885 0
0.172472 0.0437443 0
0.172039 0.0478467 0
0.0998984 0.0164775 0
0.172366 0.0450263 0
0.171903 0.0471232 0
0.129438 0.0286968 0
0.171705 0.0460889 0
0.168929 0.0400551 0
0.157767 0.0367752 0
0.171507 0.0411652 0
0.17151 0.0450886 0
0.106664 0.0189132 0
0.0879158 0.00298428 0
0.139878 0.0308255 0
0.0928298 0.0109221 0
0.0862948 -0.00149388 0
0.171235 0.0436955 0
0.171509 0.0412922 0
0.096676 0.013009 0
0.0842805 -0.00353546 0
0.170316 0.0387619 0
0.170969 0.0423657 0
0.0985804 0.0138908 0
0.170288 0.0447609 0
0.14902 0.0323075 0
0.119201 0.0225642 0
0.0821554 -0.00520496 0
0.100768 0.0147421 0
0.170045 0.0434091 0
0.170598 0.0405738 0
0.0906709 0.00563602 0
0.103098 0.0155693 0
0.0884322 0.00220957 0
0.167418 0.0357223 0
0.1697 0.0415427 0
0.17024 0.038892 0
0.157208 0.0325983 0
0.107266 0.0169624 0
0.170168 0.0367469 0
0.0933533 0.00910604 0
0.137372 0.0265093 0
0.0880503 -0.000244637 0
0.111839 0.0182808 0
0.169226 0.0390559 0
0.169732 0.0366855 0
0.168396 0.0411807 0
0.097421 0.0111286 0
0.0698967 -0.00876406 0
0.16303 0.0325023 0
0.168289 0.0405522 0
0.168184 0.0399405 0
0.11928 0.0201984 0
0.168033 0.0390718 0
0.169209 0.0346452 0
0.100451 0.0121524 0
0.167887 0.0382336 0
0.1686 0.0358772 0
0.0890439 0.0013097 0
0.126756 0.0217112 0
0.0871256 -0.00264803 0
0.16768 0.0370709 0
0.166151 0.0311228 0
0.053072 -0.00808764 0
0.0937652 0.00739015 0
0.154893 0.0283354 0
0.105792 0.0135916 0
0.16748 0.0359605 0
0.0954725 0.0082527 0
0.168311 0.0320138 0
0.0965918 0.00872932 0
0.136457 0.0231487 0
0.167205 0.0344604 0
0.097769 0.00913749 0
0.16621 0.0369364 0
0.167804 0.0319796 0
0.0988341 0.00946106 0
0.16602 0.035817 0
0.166944 0.0330434 0
0.167126 0.0296009 0
0.0915213 0.00294386 0
0.11618 0.0158631 0
0.145077 0.0240111 0
0.100456 0.00992121 0
0.0896406 0.000429757 0
0.165755 0.0342834 0
0.166598 0.0311861 0
0.102254 0.0104016 0
0.0941406 0.00541272 0
0.165395 0.0322388 0
0.163978 0.0266125 0
0.105372 0.0111887 0
0.166278 0.029455 0
0.153198 0.0238838 0
0.0832148 -0.00668985 0
0.0958075 0.00613031 0
0.166604 0.027407 0
0.0891817 -0.00214041 0
0.164079 0.0330595 0
0.0878733 -0.00384252 0
0.132458 0.0184493 0
0.109027 0.0120098 0
0.164 0.0325488 0
0.097589 0.00668211 0
0.164926 0.0296054 0
0.163922 0.0320512 0
0.165841 0.0272419 0
0.163811 0.0313489 0
0.0903245 -0.00061568 0
0.15895 0.0234323 0
0.163703 0.0306688 0
0.115062 0.0132033 0
0.0998775 0.00718192 0
0.163551 0.0297268 0
0.165395 0.0251921 0
0.163403 0.028822 0
0.0944415 0.0035368 0
0.164341 0.0263376 0
0.0949293 0.00370993 0
0.121485 0.0141387 0
0.095422 0.00387029 0
0.163199 0.0275951 0
0.0960792 0.00404997 0
0.103816 0.00783617 0
0.162206 0.02186 0
0.149631 0.0194537 0
0.163004 0.0264274 0
0.0967292 0.00420761 0
0.164525 0.0225831 0
0.161701 0.0286254 0
0.0909709 -0.00164531 0
0.097621 0.0043896 0
0.130306 0.0150106 0
0.161558 0.0277136 0
0.0924393 -0.000103394 0
0.162741 0.0248817 0
0.0885434 -0.00503573 0
0.0984485 0.00451964 0
0.0861497 -0.00650576 0
0.163652 0.0224041 0
0.161359 0.026472 0
0.162493 0.0234213 0
0.163197 0.020187 0
0.099661 0.00469131 0
0.111681 0.00887093 0
0.138483 0.0153556 0
0.161088 0.0248118 0
0.0946454 0.00134114 0
0.100934 0.00485021 0
0.0902574 -0.00412848 0
0.16218 0.0215407 0
0.0951874 0.00145384 0
0.0840921 -0.00819214 0
0.160731 0.02265 0
0.103079 0.00513397 0
0.0960687 0.0016187 0
0.159422 0.024597 0
0.0916789 -0.00288073 0
0.159332 0.0172782 0
0.14683 0.0148776 0
0.161902 0.0197824 0
0.159363 0.0241794 0
0.159305 0.0237713 0
0.162532 0.0178441 0
0.159223 0.0232016 0
0.0973762 0.00180646 0
0.105663 0.00546828 0
0.125349 0.0100915 0
0.159143 0.0226473 0
0.16028 0.0199191 0
0.0891387 -0.00625537 0
0 0 0
0.159031 0.0218826 0
0.161537 0.0175705 0
0.15892 0.0211429 0
0.152989 0.0141088 0
0.0948458 -0.000709879 0
0.0536118 -0.008876 0
0.110025 0.00597481 0
0.099136 0.00192022 0
0.0950234 -0.000706927 0
0.158767 0.0201388 0
0.0952103 -0.000700859 0
0.0954973 -0.000691169 0
0.158618 0.0191741 0
0.161148 0.0155042 0
0.0958057 -0.000675758 0
0.0923239 -0.00409971 0
0.15974 0.0165797 0
0.115062 0.00638391 0
0.0962706 -0.000656573 0
0.158415 0.0178901 0
0.101868 0.00195657 0
0.0967581 -0.00063819 0
0.15687 0.0200432 0
0.093585 -0.00341496 0
0.156958 0.0123414 0
0.142017 0.0102941 0
0.158221 0.0166662 0
0.156762 0.0192812 0
0.0974354 -0.000637775 0
0.160158 0.012914 0
0.0912588 -0.00625322 0
0.156614 0.0182561 0
0.122476 0.0067236 0
0.0896629 -0.00746366 0
0.0980956 -0.000661719 0
0.157966 0.0150735 0
0.0848293 -0.00969344 0
0.156412 0.0168894 0
0.0952003 -0.00293822 0
0.159153 0.0125976 0
0.0990036 -0.000725329 0
0.157726 0.0135648 0
0.0954015 -0.00300523 0
0.107181 0.00198221 0
0.158402 0.0105401 0
0.0711262 -0.0111706 0
0.092977 -0.00556308 0
0.129888 0.00662011 0
0.156141 0.0151002 0
0.0957758 -0.00307293 0
0.099899 -0.000818695 0
0.157443 0.0116561 0
0.0964005 -0.00315058 0
0.154441 0.0158793 0
0.0874954 -0.00949021 0
0.154396 0.015523 0
0.101304 -0.000926409 0
0.155792 0.0128156 0
0.154351 0.0151741 0
0.15429 0.0146971 0
0.090131 -0.00869929 0
0.153214 0.00780226 0
0.15423 0.0142313 0
0.13824 0.0058288 0
0.157213 0.00987183 0
0.0973726 -0.00326275 0
0.154146 0.0135964 0
0.102917 -0.00101997 0
0.157902 0.00806841 0
0.154063 0.0129793 0
0.117425 0.00190294 0
0.0955779 -0.00499981 0
0.0956675 -0.00504024 0
0.153949 0.0121464 0
0.155362 0.00998437 0
0.0935409 -0.00700318 0
0.095758 -0.00508049 0
0.0958844 -0.00514327 0
0.153837 0.0113416 0
0.156892 0.00767094 0
0.0987199 -0.00349126 0
0.0960172 -0.00520377 0
0.105674 -0.00109836 0
0.144948 0.00473296 0
0.0962285 -0.00528455 0
0.0921409 -0.00856975 0
0.153685 0.010273 0
0.0853939 -0.0111948 0
0.0964478 -0.00536391 0
0.153539 0.00924807 0
0.0967857 -0.00547126 0
0.0948161 -0.00706942 0
0.029587 -0.0056911 0
0.156492 0.00562263 0
0.0905258 -0.00992413 0
0.109082 -0.00117843 0
0.151697 0.0111911 0
0.154877 0.00659593 0
0.0971399 -0.00557771 0
0.153347 0.00791382 0
0.100609 -0.00392131 0
0.151615 0.010525 0
0.0539652 -0.00965871 0
0.0976432 -0.00573811 0
0.151504 0.00965111 0
0.150092 0.00276441 0
0.153166 0.00664596 0
0.132436 0.00116643 0
0.151356 0.00850365 0
0.0940898 -0.00869819 0
0.0981468 -0.00591059 0
0.0961756 -0.00723364 0
0.155111 0.00313777 0
0.114502 -0.00135438 0
0.0963076 -0.00733264 0
0.152936 0.00503464 0
0.151159 0.0070134 0
0.0965106 -0.00747745 0
0.0988312 -0.00617393 0
0.154381 0.00265674 0
0.103868 -0.00461009 0
0.0968222 -0.00768385 0
0.0908671 -0.0111882 0
0.152727 0.00351459 0
0.0995084 -0.00645806 0
0.152493 0.000861584 0
0.150907 0.00511574 0
0.120554 -0.0018156 0
0.0858295 -0.0126919 0
0.149112 0.00688785 0
0.0972962 -0.00797467 0
0.149076 0.00657059 0
0.149041 0.00625987 0
0.148995 0.00584838 0
0.152507 0.00163736 0
0.0883721 -0.0124452 0
0.0928475 -0.0111252 0
0.10044 -0.00686881 0
0.148949 0.00544646 0
0.0945157 -0.0103677 0
0.150598 0.0027624 0
0.148887 0.00491107 0
0.0979882 -0.00839 0
0.148826 0.00439027 0
0.0966218 -0.00937534 0
0.0966899 -0.00942453 0
0.0967577 -0.00947393 0
0.145397 -0.00152101 0
0.128192 -0.00283721 0
0.148744 0.00369846 0
0.152322 -0.000113549 0
0.101412 -0.00729398 0
0.0968547 -0.00954706 0
0.0969511 -0.0096206 0
0.148664 0.0030292 0
0.0911324 -0.012443 0
0.110481 -0.00570751 0
0.152649 -0.0016853 0
0.0970893 -0.00972766 0
0.148558 0.00214937 0
0.0972269 -0.00983558 0
0.150252 -6.74433e-05 0
0.0989365 -0.00899881 0
0.097423 -0.00999059 0
0.148457 0.00130414 0
0.102987 -0.00783363 0
0.0957999 -0.0111592 0
0.15197 -0.00222288 0
0.0976185 -0.0101474 0
0 0 0
0.135137 -0.00422793 0
0.148326 0.000211072 0
0.0978961 -0.0103712 0
0.0861135 -0.0141837 0
0.146201 0.00211763 0
0.0716781 -0.0136422 0
0.148205 -0.000830798 0
0.0948957 -0.012308 0
0.0981705 -0.0106001 0
0.146142 0.00151826 0
0.104907 -0.00836653 0
0.0541046 -0.010502 0
0.151509 -0.00415221 0
0.146065 0.000762401 0
0.09134 -0.01375 0
0.100258 -0.00986652 0
0.149898 -0.0033634 0
0.0985461 -0.0109258 0
0.148058 -0.00215145 0
0.0970313 -0.0118007 0
0.145965 -0.000201227 0
0.0971487 -0.0118993 0
0.0973226 -0.0120463 0
0.0989108 -0.0112621 0
0.12227 -0.00749839 0
0.147926 -0.00340117 0
0.141426 -0.006427 0
0.145839 -0.0014281 0
0.0933239 -0.0139545 0
0.0975736 -0.0122629 0
0.1082 -0.00905521 0
0.149369 -0.00638184 0
0.0993886 -0.011735 0
0.145683 -0.00297236 0
0.147782 -0.0049516 0
0.0979268 -0.0125784 0
0.102191 -0.0111191 0
0.0914712 -0.0150471 0
0.088812 -0.015378 0
0.0951396 -0.0142175 0
0.149423 -0.00709629 0
0.0998506 -0.0122258 0
0.0862809 -0.0156737 0
0.143407 -0.00225644 0
0.0984077 -0.0130351 0
0.147649 -0.00641682 0
0.143383 -0.00254205 0
0.1455 -0.00488078 0
0.112328 -0.00987768 0
0.14336 -0.00282183 0
0.145178 -0.00851408 0
0.143331 -0.00317695 0
0.143303 -0.00352405 0
0.143267 -0.00397149 0
0.0972711 -0.0141637 0
0.100484 -0.0128864 0
0.0973255 -0.0142139 0
0.0973798 -0.0142644 0
0.143233 -0.00440741 0
0.0974587 -0.0143391 0
0.099039 -0.0136924 0
0.147473 -0.00820524 0
0.0975373 -0.0144143 0
0.143187 -0.00497281 0
0.0976502 -0.0145242 0
0.145294 -0.00719323 0
0.143143 -0.00552144 0
0.0977624 -0.014635 0
0.0979207 -0.0147946 0
0.0915381 -0.0164086 0
0.101109 -0.0135633 0
0.143087 -0.00623105 0
0.118298 -0.0111513 0
0.135992 -0.0105993 0
0.098077 -0.0149565 0
0.147295 -0.00990728 0
0.143035 -0.00691695 0
0.105787 -0.0129516 0
0.096302 -0.0157769 0
0.0982929 -0.0151864 0
0.146645 -0.0112321 0
0.0998323 -0.0146312 0
0.142972 -0.00779748 0
0.0952764 -0.0164095 0
0.0985046 -0.0154203 0
0.0863153 -0.0171572 0
0.14506 -0.00995254 0
0.0540515 -0.0113135 0
0.142912 -0.00864608 0
0.101977 -0.0144611 0
0.0934962 -0.0170924 0
0.0987884 -0.0157486 0
0.146825 -0.0119524 0
0.140339 -0.00696209 0
0.124697 -0.0128183 0
0.142837 -0.0097246 0
0.140304 -0.00751106 0
0.0990643 -0.016084 0
0.0915288 -0.0177593 0
0.140262 -0.00817434 0
0.0973506 -0.0168847 0
0.0974459 -0.0169878 0
0.142765 -0.0107642 0
0.102909 -0.0153609 0
0.100786 -0.01595 0
0.14021 -0.00899204 0
0.0975853 -0.0171414 0
0.0994222 -0.016549 0
0.146104 -0.0138237 0
0.0977843 -0.0173671 0
0.0888443 -0.0182965 0
0.144755 -0.0132112 0
0.140149 -0.0100107 0
0.142681 -0.012069 0
0.0997617 -0.0170267 0
0.098061 -0.0176949 0
0.0715611 -0.0161644 0
0.113308 -0.0157054 0
0.0952436 -0.0185701 0
0.140076 -0.0112835 0
0.131338 -0.0153356 0
0.0862399 -0.0186375 0
0.14259 -0.0133308 0
0.104508 -0.0164961 0
0.098435 -0.0181661 0
0.100187 -0.017679 0
0.0914391 -0.0191877 0
0.142721 -0.0158462 0
0.139989 -0.0128681 0
0 0 0
0.142466 -0.0148962 0
0.101959 -0.0177511 0
0.137287 -0.0113444 0
0.0989229 -0.0188369 0
0.100582 -0.0183531 0
0.137276 -0.0116125 0
0.137266 -0.0118762 0
0.0294281 -0.00642648 0
0.0972132 -0.0195414 0
0.137254 -0.0121953 0
0.144098 -0.016952 0
0.0972561 -0.019594 0
0.0972988 -0.0196467 0
0.137243 -0.0125087 0
0.106502 -0.0177156 0
0.0973612 -0.0197247 0
0.139879 -0.0148304 0
0.142319 -0.0164083 0
0.13723 -0.0128976 0
0.0974231 -0.0198032 0
0.136233 -0.0178778 0
0.097512 -0.0199176 0
0.137218 -0.0132792 0
0.0976 -0.0200327 0
0.101057 -0.0192663 0
0.137201 -0.0137613 0
0.0995297 -0.0197839 0
0.0977237 -0.0201982 0
0.093261 -0.0205677 0
0.0537774 -0.0122018 0
0.137185 -0.014234 0
0.0912725 -0.0206055 0
0.0978456 -0.0203653 0
0.0860461 -0.0201091 0
0.137165 -0.0148348 0
0.0980128 -0.0206019 0
0.142083 -0.0182505 0
0.0950197 -0.0210157 0
0.0960547 -0.0209625 0
0.137145 -0.0154243 0
0.0981763 -0.0208415 0
0.139717 -0.0172468 0
0.101478 -0.020219 0
0.137123 -0.016175 0
0.110002 -0.0193505 0
0.0983949 -0.0211759 0
0.125211 -0.0197275 0
0.0884966 -0.021202 0
0.100237 -0.0211081 0
0.103525 -0.0202679 0
0.137097 -0.0169129 0
0.098606 -0.0215161 0
0.141832 -0.020048 0
0.139287 -0.0210929 0
0.13706 -0.0178533 0
0.0988785 -0.0219841 0
0.101953 -0.0214847 0
0.0910023 -0.022112 0
0.133911 -0.0160806 0
0.139453 -0.0201853 0
0.0968227 -0.0225271 0
0.137016 -0.0187779 0
0.133898 -0.0166249 0
0.0968977 -0.0226337 0
0.0991375 -0.0224622 0
0.097007 -0.022792 0
0.0857486 -0.0215749 0
0.133882 -0.0172587 0
0.14104 -0.0221758 0
0.1145 -0.021371 0
0.0971628 -0.023024 0
0.13695 -0.0199468 0
0.133864 -0.0180169 0
0.0994584 -0.0231104 0
0.100983 -0.0229383 0
0.0973789 -0.0233594 0
0.0945982 -0.0234209 0
0.102349 -0.0227959 0
0.133842 -0.0189433 0
0.136873 -0.0210936 0
0.0976696 -0.0238382 0
0.0997545 -0.0237751 0
0.139614 -0.0240891 0
0.133811 -0.0200941 0
0.090654 -0.0236063 0
0.139023 -0.0236937 0
0.136759 -0.0225234 0
0.0980459 -0.0245143 0
0.0533102 -0.01302 0
0.0707894 -0.0187165 0
0.106554 -0.0240115 0
0.100098 -0.0246629 0
0.0924912 -0.0243931 0
0.133761 -0.021534 0
0.119872 -0.0243084 0
0.102757 -0.0245201 0
0.0853461 -0.0230292 0
0.136629 -0.0239202 0
0.0985099 -0.0254586 0
0.134072 -0.0257994 0
0.0961933 -0.0254344 0
0.130487 -0.020659 0
0.0962273 -0.0254884 0
0.0962612 -0.0255426 0
0.100401 -0.0255734 0
0.0877859 -0.024096 0
0.130485 -0.0209429 0
0.101678 -0.0254239 0
0.0963108 -0.0256226 0
0.133677 -0.023334 0
0.09636 -0.025703 0
0.130483 -0.0212238 0
0.0964307 -0.02582 0
0.130481 -0.0215486 0
0.0965006 -0.0259376 0
0.13644 -0.0256315 0
0.130479 -0.0218704 0
0.0965986 -0.0261061 0
0.130477 -0.0222531 0
0.096695 -0.026276 0
0.0901824 -0.0251961 0
0.130474 -0.0226328 0
0.0939132 -0.0260883 0
0.103139 -0.0262661 0
0.0968269 -0.0265158 0
0.137888 -0.0276594 0
0.130469 -0.0230965 0
0.0990451 -0.0267647 0
0.0969555 -0.026758 0
0.100726 -0.0267695 0
0.133536 -0.0255627 0
0.130462 -0.0235566 0
0.136221 -0.0272884 0
0.125026 -0.0275204 0
0.0948243 -0.0266407 0
0 0 0
0.0971266 -0.0270949 0
0.13045 -0.0241277 0
0.0848464 -0.0244748 0
0.0972913 -0.0274363 0
0.130437 -0.0246939 0
0.130416 -0.0254029 0
0.0975032 -0.0279044 0
0.100977 -0.0280058 0
0.135869 -0.0292648 0
0.130392 -0.0261048 0
0.133299 -0.0282766 0
0.097703 -0.0283806 0
0.0996076 -0.0285516 0
0.104283 -0.0283608 0
0.0896273 -0.02677 0
0.130355 -0.026985 0
0.11368 -0.0292741 0
0.10214 -0.0287137 0
0.0526111 -0.013924 0
0.0979491 -0.029024 0
0.0952312 -0.0286249 0
0.130313 -0.0278539 0
0.0952927 -0.0287338 0
0.135501 -0.0311986 0
0.095382 -0.0288953 0
0.12658 -0.0257718 0
0.101199 -0.0296202 0
0.129209 -0.0315085 0
0.0955086 -0.0291314 0
0.0981735 -0.0296816 0
0.130251 -0.0289385 0
0.126579 -0.0263811 0
0.0930136 -0.0286974 0
0.0842544 -0.0259045 0
0.0956835 -0.0294716 0
0.126576 -0.0270667 0
0.0867239 -0.0269758 0
0.13291 -0.0315132 0
0.0910651 -0.0285446 0
0.130178 -0.0300056 0
0.0959174 -0.0299554 0
0.0984335 -0.0305576 0
0.126568 -0.0278606 0
0.105901 -0.0306853 0
0.100085 -0.0309778 0
0.133909 -0.0333371 0
0.126553 -0.0288026 0
0.0962178 -0.0306348 0
0.0889268 -0.0284404 0
0.101269 -0.0313153 0
0.130074 -0.0313243 0
0.0986546 -0.0314587 0
0.0693809 -0.0212549 0
0.126527 -0.0299404 0
0.129954 -0.0326176 0
0.0965839 -0.0315777 0
0.0283764 -0.00714277 0
0.130757 -0.0351832 0
0.126479 -0.0313288 0
0.0835709 -0.0273202 0
0.0988794 -0.032642 0
0.1323 -0.0353036 0
0.129783 -0.0341916 0
0.102511 -0.0331058 0
0.0940134 -0.0317086 0
0.0940414 -0.0317636 0
0.0940692 -0.0318186 0
0.0941103 -0.0319 0
0.101169 -0.0334713 0
0.094151 -0.0319817 0
0.0969972 -0.0328721 0
0.108691 -0.0337541 0
0.0942096 -0.0321004 0
0.126399 -0.0330281 0
0.0942675 -0.0322196 0
0.0943489 -0.0323902 0
0.0917929 -0.0315177 0
0.0881438 -0.0300856 0
0.122599 -0.0308439 0
0.0990368 -0.0338641 0
0.0944286 -0.0325618 0
0.051733 -0.0147105 0
0.12959 -0.0357312 0
0.1226 -0.0311747 0
0.100232 -0.0342399 0
0.0945376 -0.0328037 0
0.1226 -0.0315042 0
0.12249 -0.0363359 0
0.0946435 -0.0330475 0
0.122599 -0.0318704 0
0.122598 -0.0322351 0
0.094784 -0.0333857 0
0.126266 -0.0351 0
0.122595 -0.0326509 0
0.0924323 -0.0326601 0
0.0949186 -0.0337276 0
0.12259 -0.0330648 0
0.0974056 -0.0346298 0
0.129325 -0.0375759 0
0.0853236 -0.0298278 0
0.122584 -0.0335481 0
0.0828071 -0.0287113 0
0.100925 -0.035673 0
0.099127 -0.0354367 0
0.0950907 -0.0341947 0
0.122575 -0.0340286 0
0.130043 -0.0393901 0
0.0952518 -0.0346683 0
0.122562 -0.0346011 0