# vtk DataFile Version 3.0
File generated from DClib
ASCII

DATASET UNSTRUCTURED_GRID
POINTS 1909 float
50 0 0 
48.75 0 0 
50 1.66667 0 
47.5 0 0 
50 3.33333 0 
46.25 0 0 
50 5 0 
45 0 0 
43.75 0 0 
50 6.66667 0 
43 2 0 
42.5 0 0 
50 8.33333 0 
43 4.66667 0 
41.25 0 0 
41.075 2 0 
50 10 0 
40 0 0 
43 7.33333 0 
39.15 2 0 
38.75 0 0 
43 10 0 
37.5 0 0 
37.225 2 0 
36.25 0 0 
36 4 0 
35.3 2 0 
36 5 0 
35 0 0 
35.325 4 0 
36 6 0 
36 7 0 
34.65 4 0 
36 8 0 
33.75 0 0 
33.975 4 0 
36 9 0 
33.375 2 0 
33.3 4 0 
36 10 0 
32.5 0 0 
32.625 4 0 
33 6 0 
31.95 4 0 
33 7.45455 0 
31.45 2 0 
31.25 0 0 
31.95 6 0 
33 8.79545 0 
31.275 4 0 
33 10 0 
30.6 4 0 
30 0 0 
30.9 6 0 
29.925 4 0 
29.525 2 0 
29.85 6 0 
29.25 4 0 
28.75 0 0 
30 8 0 
30 8.45455 0 
28.575 4 0 
29.625 8 0 
30 8.90909 0 
28.8 6 0 
30 9.25 0 
29.782 8.90909 0 
30 9.59091 0 
29.9487 9.59091 0 
29.25 8 0 
29.7462 9.25 0 
30 9.79545 0 
29.897 9.59091 0 
29.564 8.90909 0 
29.9547 9.79545 0 
29.3462 8.45455 0 
29.84 9.59091 0 
30 10 0 
29.8975 9.79545 0 
29.9882 10 0 
29.9902 10.0098 0 
29.7827 9.59091 0 
29.9765 10 0 
29.9804 10.0196 0 
29.9667 10.0098 0 
29.9591 10 0 
29.9686 10.0196 0 
29.9659 10.0341 0 
29.9569 10.0196 0 
29.9418 10 0 
29.9395 10.0196 0 
29.9515 10.0485 0 
29.932 10.0098 0 
29.9424 10.0341 0 
29.8241 9.79545 0 
29.7181 9.59091 0 
29.9166 10 0 
29.9397 10.0485 0 
29.9222 10.0196 0 
29.9279 10.0485 0 
29.9305 10.0695 0 
29.8914 10 0 
29.9077 10.0341 0 
27.9 4 0 
29.897 10.0196 0 
29.9106 10.0485 0 
29.8817 10.0098 0 
29.907 10.0695 0 
29.8933 10.0485 0 
29.9095 10.0905 0 
29.8719 10.0196 0 
27.6 2 0 
29.8556 10 0 
29.8978 10.0905 0 
29.6531 9.59091 0 
29.3437 8.90909 0 
27.5 0 0 
29.8681 10.0485 0 
29.886 10.0905 0 
29.8574 10.0341 0 
29.4839 9.25 0 
29.8723 10.0695 0 
29.7289 9.79545 0 
29.836 10.0196 0 
29.8687 10.0905 0 
29.8197 10 0 
29.8797 10.1203 0 
29.843 10.0485 0 
29.8513 10.0905 0 
29.81 10.0098 0 
29.8561 10.1203 0 
29.8002 10.0196 0 
29.8221 10.0695 0 
29.8072 10.0485 0 
29.8262 10.0905 0 
29.5782 9.59091 0 
29.8498 10.1502 0 
29.7695 10 0 
29.7858 10.0341 0 
29.838 10.1502 0 
29.8215 10.1203 0 
29.8011 10.0905 0 
29.8262 10.1502 0 
29.7714 10.0485 0 
28.875 8 0 
29.75 10.0196 0 
29.8089 10.1502 0 
29.7654 10.0905 0 
29.7193 10 0 
29.7916 10.1502 0 
29.7505 10.0695 0 
29.8079 10.1921 0 
29.7713 10.1203 0 
29.7096 10.0098 0 
29.6047 9.79545 0 
29.503 9.59091 0 
29.7213 10.0485 0 
29.7665 10.1502 0 
29.6999 10.0196 0 
29.7844 10.1921 0 
29.7296 10.0905 0 
29.6856 10.0341 0 
29.7414 10.1502 0 
29.7497 10.1921 0 
29.6503 10 0 
29.7661 10.2339 0 
29.6712 10.0485 0 
29.6999 10.1203 0 
29.7543 10.2339 0 
29.6796 10.0905 0 
29.7057 10.1502 0 
29.7425 10.2339 0 
29.1235 8.90909 0 
29.6309 10.0196 0 
29.6504 10.0695 0 
29.4146 9.59091 0 
29.7252 10.2339 0 
29.6996 10.1921 0 
29.6701 10.1502 0 
29.7079 10.2339 0 
29.6296 10.0905 0 
29.5813 10 0 
29.6023 10.0485 0 
29.5716 10.0098 0 
29.6828 10.2339 0 
29.7086 10.2914 0 
29.2101 9.25 0 
29.562 10.0196 0 
29.6201 10.1502 0 
29.6578 10.2339 0 
29.4428 9.79545 0 
29.5999 10.1203 0 
29.6849 10.2914 0 
29.6283 10.1921 0 
29.5477 10.0341 0 
29.3259 9.59091 0 
29.5608 10.0905 0 
29.5335 10.0485 0 
29.6221 10.2339 0 
29.6503 10.2914 0 
29.5702 10.1502 0 
29.4881 10 0 
29.5128 10.0695 0 
29.6511 10.3489 0 
29.5866 10.2339 0 
29.6392 10.3489 0 
29.4689 10.0196 0 
29.6002 10.2914 0 
29.6273 10.3489 0 
29.4921 10.0905 0 
29.61 10.3489 0 
29.5286 10.1921 0 
29.5016 10.1502 0 
29.5368 10.2339 0 
29.5926 10.3489 0 
29.4405 10.0485 0 
29.2199 9.59091 0 
29.4626 10.1203 0 
29.3949 10 0 
28.9 8.90909 0 
29.5676 10.3489 0 
29.5291 10.2914 0 
29.3853 10.0098 0 
28.6923 8.45455 0 
29.487 10.2339 0 
29.5426 10.3489 0 
29.3758 10.0196 0 
29.5734 10.4266 0 
29.4331 10.1502 0 
29.3993 10.0905 0 
28.5 8 0 
29.3617 10.0341 0 
29.5496 10.4266 0 
29.5071 10.3489 0 
29.2327 9.79545 0 
29.3475 10.0485 0 
29.1136 9.59091 0 
29.4187 10.2339 0 
29.5148 10.4266 0 
29.4716 10.3489 0 
29.3918 10.1921 0 
29.3271 10.0695 0 
29.4298 10.2914 0 
29.2714 10 0 
29.3406 10.1502 0 
28.9208 9.25 0 
29.3066 10.0905 0 
29.4648 10.4266 0 
29.422 10.3489 0 
29.4958 10.5042 0 
29.2524 10.0196 0 
27.75 6 0 
29.3504 10.2339 0 
29.4837 10.5042 0 
29.4718 10.5042 0 
29.2774 10.1203 0 
29.4543 10.5042 0 
29.3724 10.3489 0 
29.2244 10.0485 0 
29.4369 10.5042 0 
29.3938 10.4266 0 
28.9853 9.59091 0 
29.2481 10.1502 0 
28.6766 8.90909 0 
29.4119 10.5042 0 
29.2934 10.2914 0 
27.225 4 0 
29.148 10 0 
29.2582 10.2339 0 
29.1837 10.0905 0 
29.3869 10.5042 0 
29.1385 10.0098 0 
29.3044 10.3489 0 
29.1291 10.0196 0 
29.2072 10.1921 0 
29.3514 10.5042 0 
29.1152 10.0341 0 
29.3929 10.6071 0 
29.2949 10.4266 0 
29.1013 10.0485 0 
29.3686 10.6071 0 
29.316 10.5042 0 
29.2364 10.3489 0 
28.9623 9.79545 0 
29.1257 10.1502 0 
29.1662 10.2339 0 
29.0811 10.0695 0 
28.8566 9.59091 0 
29.3336 10.6071 0 
29.2666 10.5042 0 
29.0609 10.0905 0 
28.9875 10 0 
29.2835 10.6071 0 
29.1448 10.3489 0 
29.0321 10.1203 0 
29.2173 10.5042 0 
29.1098 10.2914 0 
28.125 8 0 
28.9688 10.0196 0 
29.1594 10.4266 0 
28.611 9.25 0 
29.29 10.71 0 
28.4486 8.90909 0 
29.0443 10.2339 0 
29.0033 10.1502 0 
29.2777 10.71 0 
28.9413 10.0485 0 
29.2128 10.6071 0 
29.2655 10.71 0 
29.1497 10.5042 0 
29.2478 10.71 0 
28.7003 9.59091 0 
29.0533 10.3489 0 
29.2303 10.71 0 
28.9629 10.1921 0 
28.9013 10.0905 0 
29.2051 10.71 0 
29.0822 10.5042 0 
29.1801 10.71 0 
28.827 10 0 
29.1144 10.6071 0 
28.8177 10.0098 0 
28.9225 10.2339 0 
28.8085 10.0196 0 
29.1447 10.71 0 
28.7949 10.0341 0 
28.8443 10.1502 0 
28.977 10.4266 0 
28.9322 10.3489 0 
29.1094 10.71 0 
28.7813 10.0485 0 
28.9912 10.5042 0 
29.1562 10.8438 0 
28.5436 9.59091 0 
28.7615 10.0695 0 
28.8669 10.2914 0 
29.1313 10.8438 0 
28.6184 9.79545 0 
29.0602 10.71 0 
28.2207 8.90909 0 
28.7418 10.0905 0 
28.0378 8.45455 0 
28.9798 10.6071 0 
29.0958 10.8438 0 
29.0112 10.71 0 
28.9005 10.5042 0 
28.7136 10.1203 0 
28.7644 10.2339 0 
28.8113 10.3489 0 
29.0454 10.8438 0 
28.6223 10 0 
28.6854 10.1502 0 
28.2746 9.25 0 
28.9441 10.71 0 
28.6042 10.0196 0 
27.75 8 0 
28.9747 10.8438 0 
28.6459 10.1921 0 
28.5773 10.0485 0 
29.0225 10.9775 0 
28.3532 9.59091 0 
28.7804 10.5042 0 
28.736 10.4266 0 
28.8772 10.71 0 
29.0097 10.9775 0 
28.9971 10.9775 0 
28.799 10.6071 0 
28.9791 10.9775 0 
28.5384 10.0905 0 
28.6064 10.2339 0 
28.6543 10.3489 0 
28.9611 10.9775 0 
28.8769 10.8438 0 
27.9867 8.90909 0 
26.25 0 0 
28.9358 10.9775 0 
28.7871 10.71 0 
28.9106 10.9775 0 
28.6607 10.5042 0 
28.4177 10 0 
26.55 4 0 
28.552 10.2914 0 
28.483 10.1502 0 
28.4087 10.0098 0 
28.8751 10.9775 0 
28.3998 10.0196 0 
28.3866 10.0341 0 
28.8399 10.9775 0 
28.6974 10.71 0 
28.3735 10.0485 0 
28.1625 9.59091 0 
28.7436 10.8438 0 
28.4976 10.3489 0 
28.3543 10.0695 0 
28.791 10.9775 0 
28.4052 10.2339 0 
28.3352 10.0905 0 
28.8519 11.1481 0 
28.1869 9.79545 0 
28.5607 10.6071 0 
28.5053 10.5042 0 
28.7423 10.9775 0 
28.8258 11.1481 0 
28.308 10.1203 0 
28.5787 10.71 0 
27.904 9.25 0 
28.7893 11.1481 0 
28.424 10.4266 0 
27.7528 8.90909 0 
28.2807 10.1502 0 
28.6758 10.9775 0 
27.375 8 0 
28.7383 11.1481 0 
28.1619 10 0 
28.5649 10.8438 0 
28.2425 10.1921 0 
28.6096 10.9775 0 
28.1444 10.0196 0 
28.298 10.3489 0 
28.4605 10.71 0 
26.7 6 0 
27.9315 9.59091 0 
28.3503 10.5042 0 
28.6676 11.1481 0 
28.1187 10.0485 0 
28.2042 10.2339 0 
28.5207 10.9775 0 
28.0813 10.0905 0 
28.6814 11.3186 0 
27.3818 8.45455 0 
28.6679 11.3186 0 
28.1516 10.2914 0 
28.5703 11.1481 0 
28.6544 11.3186 0 
28.6358 11.3186 0 
27.5109 8.90909 0 
28.3072 10.71 0 
28.6173 11.3186 0 
28.2524 10.6071 0 
28.4322 10.9775 0 
28.028 10.1502 0 
28.5915 11.3186 0 
28.0989 10.3489 0 
28.33 10.8438 0 
28.5658 11.3186 0 
28.153 10.5042 0 
27.9061 10 0 
27.8975 10.0098 0 
28.5303 11.3186 0 
28.4384 11.1481 0 
27.7002 9.59091 0 
27.889 10.0196 0 
27.8765 10.0341 0 
28.4949 11.3186 0 
28.3154 10.9775 0 
27.9532 10.2339 0 
27.8639 10.0485 0 
28.0276 10.4266 0 
28.1544 10.71 0 
27.8457 10.0695 0 
27.4909 9.25 0 
28.4463 11.3186 0 
27 8 0 
27.8275 10.0905 0 
28.3979 11.3186 0 
27.8015 10.1203 0 
27.6542 9.79545 0 
25.675 2 0 
28.1991 10.9775 0 
27.2691 8.90909 0 
27.9563 10.5042 0 
28.4682 11.5318 0 
28.2625 11.1481 0 
27.7755 10.1502 0 
28.3322 11.3186 0 
27.8502 10.3489 0 
28.4401 11.5318 0 
25.875 4 0 
27.7391 10.1921 0 
28.4019 11.5318 0 
28.0268 10.8438 0 
28.2668 11.3186 0 
27.9602 10.71 0 
28.3498 11.5318 0 
27.4223 9.59091 0 
27.7026 10.2339 0 
27.5927 10 0 
28.0486 10.9775 0 
27.8616 10.6071 0 
27.5762 10.0196 0 
28.1794 11.3186 0 
28.2786 11.5318 0 
27.5519 10.0485 0 
27.6524 10.2914 0 
28.0319 11.1481 0 
27.7108 10.5042 0 
27.5167 10.0905 0 
27.0169 8.90909 0 
28.0924 11.3186 0 
27.6021 10.3489 0 
27.8988 10.9775 0 
28.1818 11.5318 0 
27.7667 10.71 0 
26.625 8 0 
28.255 11.745 0 
27.4664 10.1502 0 
28.2402 11.745 0 
28.2256 11.745 0 
28.2059 11.745 0 
27.978 11.3186 0 
26.7234 8.45455 0 
27.0259 9.25 0 
27.5342 10.4266 0 
28.1863 11.745 0 
27.1442 9.59091 0 
28.0516 11.5318 0 
28.1598 11.745 0 
27.3959 10.2339 0 
28.1334 11.745 0 
27.2793 10 0 
27.2714 10.0098 0 
27.2635 10.0196 0 
27.7086 10.9775 0 
27.6431 10.8438 0 
28.0975 11.745 0 
27.8643 11.3186 0 
27.4661 10.5042 0 
27.2518 10.0341 0 
27.2401 10.0485 0 
28.0617 11.745 0 
26.7648 8.90909 0 
27.5255 10.71 0 
27.7353 11.1481 0 
27.2231 10.0695 0 
28.0133 11.745 0 
27.2061 10.0905 0 
27.8791 11.5318 0 
27.2986 10.3489 0 
27.1818 10.1203 0 
27.9651 11.745 0 
27.3758 10.6071 0 
27.0077 9.79545 0 
27.7174 11.3186 0 
27.1576 10.1502 0 
25 0 0 
27.5193 10.9775 0 
27.9003 11.745 0 
27.1236 10.1921 0 
26.25 8 0 
27.9939 12.0061 0 
25.65 6 0 
27.8359 11.745 0 
26.8136 9.59091 0 
27.0896 10.2339 0 
27.9626 12.0061 0 
27.2853 10.71 0 
25.2 4 0 
27.5713 11.3186 0 
27.9218 12.0061 0 
26.4998 8.90909 0 
27.167 10.5042 0 
27.6541 11.5318 0 
27.0427 10.2914 0 
27.7503 11.745 0 
26.9033 10 0 
27.8677 12.0061 0 
26.8882 10.0196 0 
26.8659 10.0485 0 
26.9958 10.3489 0 
27.2836 10.9775 0 
27.6652 11.745 0 
27.3609 11.1481 0 
27.7955 12.0061 0 
26.499 9.25 0 
[...]
POINT_DATA 1909
SCALARS phi float 1
LOOKUP_TABLE default
VECTORS Displacement float
0 0 0
0 0 0
0 -0.000815185 0
0 0 0
0 -0.00111168 0
0 0 0
0 -0.000933476 0
0 0 0
0 0 0
0 -0.000334377 0
0.00240764 -0.000745066 0
0 0 0
0 0.000660549 0
0.00471872 -0.000457468 0
0 0 0
0.00323089 -0.000736619 0
0 0.00200141 0
0 0 0
0.00631832 0.00105913 0
0.00412605 -0.000749125 0
0 0 0
0.00727022 0.00343435 0
0 0 0
0.00507467 -0.000798731 0
0 0 0
0.00969875 -0.000568502 0
0.00602723 -0.000885335 0
0.0115466 -2.25453e-05 0
0 0 0
0.0103794 -0.00061647 0
0.0129508 0.00074261 0
0.013963 0.00167897 0
0.011041 -0.000674412 0
0.0146754 0.0027141 0
0 0 0
0.0116948 -0.000766383 0
0.0151188 0.00380742 0
0.00692973 -0.00100411 0
0.0123272 -0.000870379 0
0.0153389 0.00490327 0
0 0 0
0.012926 -0.000994394 0
0.0167438 0.000246933 0
0.0134954 -0.00113037 0
0.0185983 0.00170092 0
0.00773313 -0.00115044 0
0 0 0
0.0180199 -0.000275717 0
0.0195762 0.0034645 0
0.0140229 -0.0012809 0
0.0196034 0.00534518 0
0.0145116 -0.00144274 0
0 0 0
0.0190839 -0.000795239 0
0.0149557 -0.00161676 0
0.00839453 -0.00132143 0
0.0199875 -0.00135043 0
0.0153529 -0.00180214 0
0 0 0
0.0234035 -0.000163685 0
0.0240578 0.000237589 0
0.0157036 -0.00199776 0
0.0238114 -0.00052223 0
0.0246995 0.000698388 0
0.0207345 -0.00195208 0
0.025112 0.00113003 0
0.0249983 0.000417657 0
0.0254665 0.00164552 0
0.0255604 0.00150648 0
0.0241728 -0.000882952 0
0.0254816 0.000720086 0
0.025658 0.00200282 0
0.0256429 0.00137921 0
0.0252701 0.000132747 0
0.0257423 0.0018112 0
0.0248181 -0.000489521 0
0.0257237 0.00125277 0
0.025704 0.00242534 0
0.0258378 0.00162753 0
0.0257454 0.00236312 0
0.0260778 0.00247755 0
0.0258012 0.00113891 0
0.0257891 0.00230674 0
0.0262149 0.00243856 0
0.0260612 0.00233809 0
0.0258517 0.00223207 0
0.0262077 0.00236931 0
0.026296 0.00235069 0
0.0262032 0.0023103 0
0.0259148 0.00216901 0
0.0262008 0.0022336 0
0.0263891 0.00228084 0
0.0260905 0.00218212 0
0.0263 0.00224623 0
0.0259635 0.00145825 0
0.0258862 0.00102547 0
0.0260022 0.00208845 0
0.0263935 0.00223699 0
0.0262106 0.00216682 0
0.0264003 0.00219818 0
0.0265444 0.00220754 0
0.0260873 0.00201888 0
0.0263241 0.00212967 0
0.0160009 -0.00220603 0
0.0262397 0.00208392 0
0.0264147 0.00214692 0
0.0261901 0.00201695 0
0.0265537 0.00214583 0
0.026432 0.00209982 0
0.026689 0.00215231 0
0.0262833 0.00200865 0
0.00887486 -0.00151561 0
0.0261972 0.00192416 0
0.026693 0.00212757 0
0.025974 0.000922326 0
0.0255272 -0.000147955 0
0 0 0
0.0264638 0.00203532 0
0.0266989 0.00210257 0
0.0263953 0.00199168 0
0.0258095 0.000333207 0
0.026582 0.00206293 0
0.026133 0.00129108 0
0.0263553 0.00191527 0
0.0267102 0.00206571 0
0.0262981 0.00183407 0
0.0268844 0.00209082 0
0.0264993 0.00197437 0
0.0267242 0.00202878 0
0.026367 0.00183163 0
0.0268909 0.00204795 0
0.0264332 0.00182749 0
0.026641 0.00194851 0
0.0265573 0.00188961 0
0.0267479 0.00197511 0
0.0260752 0.000811183 0
0.027059 0.00203597 0
0.026423 0.0017196 0
0.0265276 0.00181875 0
0.0270615 0.00201657 0
0.0269099 0.00198139 0
0.0267747 0.0019212 0
0.027065 0.0019964 0
0.0266183 0.00180763 0
0.0245238 -0.00125292 0
0.0265397 0.00171331 0
0.0270718 0.00196567 0
0.0268179 0.00184384 0
0.0265364 0.00161116 0
0.0270805 0.00193385 0
0.0267443 0.00178872 0
0.0272799 0.00196459 0
0.0269509 0.00188039 0
0.0265894 0.00160897 0
0.0263458 0.00109903 0
0.02618 0.000703992 0
0.0267063 0.00169663 0
0.027096 0.00188641 0
0.0266422 0.00160586 0
0.0272845 0.00192683 0
0.0268644 0.00176725 0
0.0267182 0.00159952 0
0.0271143 0.00183787 0
0.0272968 0.00186761 0
0.0266743 0.00147844 0
0.0274787 0.00189554 0
0.026793 0.00159163 0
0.027026 0.00173363 0
0.0274805 0.00187743 0
0.0269333 0.00166205 0
0.0271443 0.00176774 0
0.0274829 0.00185889 0
0.0257679 -0.000424071 0
0.0267678 0.00147147 0
0.0268996 0.00157757 0
0.0263011 0.000580379 0
0.0274874 0.00183081 0
0.0273238 0.00177705 0
0.0271778 0.00169737 0
0.0274931 0.00180202 0
0.0270032 0.00156104 0
0.0267989 0.0013485 0
0.0269049 0.00145676 0
0.0268425 0.0013451 0
0.0275033 0.00175923 0
0.027725 0.00180327 0
0.0261364 -3.64103e-05 0
0.026886 0.0013412 0
0.0272287 0.00159958 0
0.0275155 0.0017155 0
0.026601 0.000857259 0
0.0271457 0.00153396 0
0.0277285 0.00176762 0
0.0273755 0.00164385 0
0.026949 0.0013344 0
0.0264235 0.000456113 0
0.0270976 0.00142755 0
0.0270115 0.00132659 0
0.0275357 0.00165206 0
0.0277368 0.00171299 0
0.0272819 0.00150356 0
0.0269492 0.00118634 0
0.0271012 0.0013134 0
0.0279462 0.00171327 0
0.0275586 0.00158779 0
0.0279476 0.00169589 0
0.0270273 0.00117682 0
0.0277547 0.00163037 0
0.0279494 0.00167826 0
0.0271895 0.00129838 0
0.0279526 0.00165186 0
0.0274628 0.00145693 0
0.027357 0.00137371 0
0.0275943 0.00149719 0
0.0279566 0.00162498 0
0.0271426 0.00115997 0
0.0265634 0.000306058 0
0.0273126 0.00127398 0
0.0270857 0.00102373 0
0.0259982 -0.000701788 0
0.0279635 0.00158526 0
0.0277894 0.00150815 0
0.0271226 0.00101854 0
0.0254518 -0.00120975 0
0.0276329 0.00140642 0
0.0279715 0.00154476 0
0.0271595 0.00101304 0
0.0282137 0.00159391 0
0.0274321 0.00124665 0
0.0273064 0.00113015 0
0.024838 -0.00163411 0
0.0272129 0.00100431 0
0.0282164 0.00155908 0
0.027985 0.00148593 0
0.0268971 0.000538602 0
0.027266 0.000994934 0
0.026701 0.000153009 0
0.027689 0.00128158 0
0.0282223 0.00150659 0
0.0280003 0.00142602 0
0.0275933 0.00120413 0
0.0273425 0.000980106 0
0.0278503 0.00133255 0
0.0272494 0.000815612 0
0.0275313 0.00107813 0
0.0264627 -0.000424311 0
0.0274181 0.000964003 0
0.0282342 0.00142806 0
0.0280245 0.0013408 0
0.0284512 0.00147526 0
0.0273164 0.000802786 0
0.0213129 -0.00259983 0
0.027747 0.00115746 0
0.0284524 0.00145782 0
0.0284537 0.00144022 0
0.0275241 0.000938846 0
0.0284561 0.00141416 0
0.0280512 0.0012544 0
0.0274148 0.000781996 0
0.0284589 0.00138777 0
0.0282572 0.00131206 0
0.0268576 -3.53919e-05 0
0.0276279 0.000911416 0
0.0262153 -0.000983836 0
0.0284636 0.00134907 0
0.0279466 0.00108792 0
0.0162488 -0.00242183 0
0.0273993 0.00060462 0
0.0278263 0.000990256 0
0.0275553 0.000748126 0
0.028469 0.00130975 0
0.0274309 0.000597552 0
0.028091 0.00113423 0
0.0274625 0.000590274 0
0.0277691 0.000869404 0
0.0284779 0.00125282 0
0.0275084 0.000579156 0
0.0287287 0.00131742 0
0.0282983 0.00114387 0
0.0275541 0.000567588 0
0.0287309 0.00128149 0
0.028488 0.00119488 0
0.0281332 0.00101309 0
0.0272304 0.000114146 0
0.0277495 0.00069283 0
0.0279054 0.000823733 0
0.0276197 0.000549989 0
0.0270079 -0.000228 0
0.0287351 0.0012283 0
0.028504 0.00111233 0
0.0276847 0.000531485 0
0.0275772 0.000331872 0
0.0287433 0.00114981 0
0.0281928 0.000848107 0
0.0277761 0.000503541 0
0.0285219 0.00102834 0
0.0280844 0.00075567 0
0.0251293 -0.00202597 0
0.0276349 0.000315626 0
0.0283657 0.000905607 0
0.0267816 -0.000851117 0
0.0289701 0.00115708 0
0.0264211 -0.0012763 0
0.0280079 0.000603264 0
0.0278658 0.000473892 0
0.0289711 0.00113857 0
0.0277194 0.00029034 0
0.0287585 0.00103495 0
0.0289722 0.00112 0
0.0285489 0.00091094 0
0.028974 0.00109287 0
0.0271776 -0.000466432 0
0.0282537 0.000682312 0
0.028976 0.00106555 0
0.0279885 0.00042958 0
0.0278399 0.000250993 0
0.0289792 0.0010259 0
0.0285781 0.000791737 0
0.0289829 0.000985828 0
0.0277399 5.48535e-05 0
0.0287855 0.000868926 0
0.027767 4.60214e-05 0
0.0281075 0.000382302 0
0.027794 3.70359e-05 0
0.0289889 0.000928246 0
0.0278334 2.35103e-05 0
0.0280071 0.000189694 0
0.0284672 0.000576278 0
0.0283349 0.000460994 0
0.0289955 0.000869866 0
0.0278725 9.65726e-06 0
0.0286201 0.000628468 0
0.0292388 0.000943667 0
0.0273364 -0.000709576 0
0.0279288 -1.1019e-05 0
0.0282651 0.000312749 0
0.0292407 0.000904642 0
0.0275915 -0.000445623 0
0.029006 0.000787068 0
0.0266102 -0.0015751 0
0.0279844 -3.23653e-05 0
0.0259684 -0.00197188 0
0.0288307 0.000632983 0
0.0292439 0.000848044 0
0.0290177 0.000702971 0
0.0286641 0.000463223 0
0.0280627 -6.39415e-05 0
0.0282308 9.43615e-05 0
0.0284155 0.000238483 0
0.0292496 0.000765981 0
0.0279288 -0.000300744 0
0.0281397 -9.6816e-05 0
0.0270869 -0.00133007 0
0.0290353 0.000585564 0
0.027978 -0.000320263 0
0.0253812 -0.00242841 0
0.0292598 0.000647591 0
0.0282451 -0.000144992 0
0.02805 -0.000350035 0
0.0294639 0.000723426 0
0.0275127 -0.0010099 0
0.0287242 0.000241509 0
0.0286068 0.000131524 0
0.0290546 0.000466286 0
0.0294647 0.000702818 0
0.0294656 0.000682214 0
0.0289009 0.000304538 0
0.029467 0.000652708 0
0.0281526 -0.000395223 0
0.0283478 -0.00019553 0
0.0285172 -5.27627e-05 0
0.0294685 0.000623114 0
0.0292772 0.000478311 0
0.0267869 -0.00188694 0
0 0 0
0.0294708 0.000580795 0
0.0290825 0.000302774 0
0.0294734 0.00053822 0
0.0287848 1.76986e-05 0
0.0280988 -0.000660981 0
0.0164383 -0.00265311 0
0.0284842 -0.000268742 0
0.0282949 -0.000463617 0
0.0281217 -0.000671434 0
0.0294774 0.000477735 0
0.0281445 -0.000682003 0
0.0281778 -0.0006978 0
0.0294818 0.00041671 0
0.0291122 0.000136879 0
0.0282109 -0.000713848 0
0.027673 -0.00131491 0
0.0293062 0.00023933 0
0.0286149 -0.000345951 0
0.0282585 -0.000737563 0
0.0294886 0.000330898 0
0.028486 -0.000566868 0
0.0283056 -0.000761794 0
0.0296956 0.000432023 0
0.0279623 -0.00116929 0
0.029001 -0.000142283 0
0.028863 -0.000276298 0
0.0294959 0.000244113 0
0.0296972 0.000387645 0
0.0283717 -0.000797211 0
0.0291533 -8.60425e-05 0
0.0273714 -0.00187304 0
0.0296997 0.000324946 0
0.0287823 -0.000456126 0
0.0269445 -0.00220434 0
0.0284368 -0.000833646 0
0.029507 0.000123687 0
0.025601 -0.00283941 0
0.0297038 0.000235948 0
0.0282879 -0.00111528 0
0.0293515 -9.24793e-05 0
0.0285259 -0.000886343 0
0.029519 1.72136e-06 0
0.0283292 -0.00113785 0
0.0287317 -0.000722048 0
0.0291952 -0.000311632 0
0.0217104 -0.00329088 0
0.0278454 -0.0016888 0
0.028939 -0.000572562 0
0.0297106 0.00010982 0
0.0283895 -0.0011719 0
0.0286128 -0.000940941 0
0.0295363 -0.00016485 0
0.0284753 -0.00122285 0
0.0298737 0.00012812 0
0.0263688 -0.00276999 0
0.0298745 0.000104152 0
0.0287284 -0.00101905 0
0.0297215 -6.78269e-05 0
0.0298752 8.02498e-05 0
0.0298763 4.6927e-05 0
0.0270882 -0.00253695 0
0.0292501 -0.0006084 0
0.0298775 1.36139e-05 0
0.0291305 -0.000735612 0
0.0295547 -0.000333568 0
0.0285944 -0.0012986 0
0.0298792 -3.30758e-05 0
0.0288395 -0.0011005 0
0.029417 -0.000543898 0
0.029881 -7.9865e-05 0
0.0290309 -0.000953258 0
0.0284518 -0.00157358 0
0.0284707 -0.00158552 0
0.0298836 -0.000145319 0
0.029739 -0.000315543 0
0.0279958 -0.00206685 0
0.0284896 -0.00159755 0
0.0285172 -0.00161546 0
0.0298865 -0.000211066 0
0.02958 -0.000559804 0
0.0287541 -0.00141066 0
0.0285446 -0.00163357 0
0.0289821 -0.00121555 0
0.0293037 -0.000907801 0
0.028584 -0.00166018 0
0.0276261 -0.00249253 0
0.0298906 -0.000302402 0
0.02578 -0.00325886 0
0.028623 -0.0016872 0
0.0298951 -0.000394343 0
0.0286777 -0.0017264 0
0.0283113 -0.00208232 0
0.00913634 -0.00173078 0
0.0296059 -0.000788643 0
0.0272115 -0.00287378 0
0.029116 -0.00133613 0
0.0300288 -0.000269603 0
0.0297654 -0.00065627 0
0.0287314 -0.00176642 0
0.0299015 -0.000520707 0
0.0289598 -0.00157563 0
0.0300302 -0.00032231 0
0.0165746 -0.00288725 0
0.0288051 -0.0018238 0
0.0300322 -0.000394328 0
0.0295024 -0.00114386 0
0.0299082 -0.000648113 0
0.0293689 -0.0012929 0
0.0300351 -0.000493857 0
0.0281486 -0.00252487 0
0.0288768 -0.00188274 0
0.0286207 -0.0021386 0
0.0296395 -0.00108931 0
0.0292801 -0.00150388 0
0.0286546 -0.00216398 0
0.0299176 -0.000820827 0
0.0300394 -0.000631864 0
0.0287039 -0.00220202 0
0.0289722 -0.00196626 0
0.0298024 -0.00111682 0
0.0292108 -0.00181695 0
0.028774 -0.00225843 0
0.0273194 -0.00322836 0
0.0299273 -0.000995095 0
0.0290639 -0.00205258 0
0.0296722 -0.00139261 0
0.0300457 -0.000822696 0
0.029429 -0.00168013 0
0.0259251 -0.00368612 0
0.0301179 -0.000687369 0
0.0288711 -0.00234134 0
0.0301185 -0.000716463 0
0.0301192 -0.000745438 0
0.03012 -0.000784413 0
0.0299403 -0.00122748 0
0.0266456 -0.00359952 0
0.0278378 -0.00320175 0
0.0291815 -0.00217343 0
0.0301209 -0.000823296 0
0.028272 -0.00298593 0
0.0300547 -0.00108462 0
0.0301221 -0.000876307 0
0.029001 -0.00246231 0
0.0301233 -0.000929286 0
0.0287552 -0.00270581 0
0.0287705 -0.00271911 0
0.0287858 -0.00273248 0
0.0297111 -0.00178242 0
0.0295999 -0.00192098 0
0.030125 -0.00100184 0
0.029953 -0.00146185 0
0.0292919 -0.00229907 0
0.0288081 -0.00275232 0
0.0288302 -0.00277233 0
0.0301266 -0.00107447 0
0.0274064 -0.00358583 0
0.0294949 -0.00216653 0
0.0298487 -0.0017263 0
0.0288619 -0.00280161 0
0.0301289 -0.00117371 0
0.0288933 -0.00283123 0
0.0300668 -0.00144004 0
0.0291679 -0.00263765 0
0.0289373 -0.00287399 0
0.0301311 -0.00127321 0
0.029427 -0.00247259 0
0.0285912 -0.00320395 0
0.0299688 -0.00176853 0
0.0289805 -0.00291742 0
0 0 0
0.0297458 -0.00217418 0
0.030134 -0.00140816 0
0.0290395 -0.00297933 0
0.0260293 -0.0041196 0
0.0301449 -0.00122636 0
0.0219175 -0.00402131 0
0.0301368 -0.00154364 0
0.0283833 -0.00353607 0
0.0290969 -0.0030425 0
0.0301461 -0.00129169 0
0.0295494 -0.00265376 0
0.0166483 -0.00314126 0
0.029983 -0.00207723 0
0.0301477 -0.00137736 0
0.0274758 -0.00396401 0
0.0293707 -0.00289016 0
0.0300814 -0.00191508 0
0.029173 -0.00313142 0
0.0301403 -0.00172534 0
0.0288736 -0.00338797 0
0.0301496 -0.00149181 0
0.0289007 -0.00341586 0
0.0289399 -0.00345747 0
0.0292459 -0.00322268 0
0.0297816 -0.00266591 0
0.0301434 -0.00190786 0
0.0298966 -0.00251335 0
0.030152 -0.00164622 0
0.0279878 -0.00401383 0
0.0289955 -0.00351883 0
0.0296893 -0.0029001 0
0.0299983 -0.00247276 0
0.0293392 -0.00334951 0
0.0301546 -0.00185495 0
0.0301467 -0.00214915 0
0.0290723 -0.00360831 0
0.0295986 -0.00325084 0
0.0275235 -0.00434389 0
0.0267984 -0.00445375 0
0.0284565 -0.00408733 0
0.0300951 -0.00253811 0
0.0294264 -0.00348042 0
0.0260992 -0.00455905 0
0.0300926 -0.00179517 0
0.0291744 -0.00373758 0
0.0301491 -0.00239149 0
0.0300931 -0.00183197 0
0.0301571 -0.00213598 0
0.0298076 -0.00315797 0
0.0300937 -0.00186861 0
0.0300093 -0.00286962 0
0.0300943 -0.00191576 0
0.030095 -0.00196275 0
0.0300957 -0.00202454 0
0.028946 -0.00406896 0
0.0295324 -0.00365998 0
0.028958 -0.00408343 0
0.02897 -0.00409796 0
0.0300964 -0.0020862 0
0.0289875 -0.00411949 0
0.0293047 -0.00392278 0
0.0301505 -0.0027064 0
0.0290048 -0.00414114 0
0.0300972 -0.00216824 0
0.0290296 -0.00417277 0
0.0301583 -0.00251103 0
0.0300978 -0.00225018 0
0.0290541 -0.00420466 0
0.0290884 -0.00425056 0
0.0275509 -0.00474774 0
0.0296275 -0.00384625 0
0.0300985 -0.00235965 0
0.0299277 -0.00350228 0
0.0300161 -0.00336653 0
0.0291219 -0.00429701 0
0.0301496 -0.00302224 0
0.0300989 -0.00246906 0
0.0298245 -0.00376037 0
0.0287387 -0.00454297 0
0.0291676 -0.00436292 0
0.0300992 -0.00333696 0
0.0294614 -0.00418607 0
0.030099 -0.00261484 0
0.0284983 -0.0047331 0
0.0292119 -0.00442989 0
0.0261295 -0.0050024 0
0.0301555 -0.00300505 0
0.0166647 -0.00339013 0
0.0300987 -0.00276065 0
0.0297349 -0.00409802 0
0.0280507 -0.00494022 0
0.0292703 -0.00452365 0
0.0301449 -0.00342465 0
0.0299323 -0.00251644 0
0.0300142 -0.00386295 0
0.0300975 -0.00295341 0
0.0299334 -0.00260057 0
0.029326 -0.00461934 0
0.0275557 -0.00515217 0
0.0299345 -0.00270579 0
0.0289752 -0.0048667 0
0.0289962 -0.00489666 0
0.0300955 -0.00314624 0
0.0298237 -0.00436018 0
0.029634 -0.00455731 0
0.0299356 -0.00284072 0
0.0290266 -0.00494125 0
0.0293966 -0.00475156 0
0.0301356 -0.00382718 0
0.0290694 -0.00500672 0
0.0268311 -0.0053262 0
0.0301433 -0.00364484 0
0.0299362 -0.00301661 0
0.0300914 -0.00339819 0
0.029462 -0.0048872 0
0.0291282 -0.00510168 0
0.0219287 -0.00478559 0
0.0299986 -0.0044694 0
0.0284925 -0.00537694 0
0.0299358 -0.00324773 0
0.0300765 -0.00433492 0
0.0261261 -0.00544963 0
0.0300857 -0.00365013 0
0.0299104 -0.00470864 0
0.0292057 -0.00523789 0
0.0295404 -0.00507209 0
0.0275364 -0.00558381 0
0.030117 -0.00432891 0
0.029933 -0.00355166 0
0 0 0
0.030076 -0.00397434 0
0.0297982 -0.00507557 0
0.0296811 -0.00327888 0
0.0293034 -0.00543131 0
0.0296096 -0.00526271 0
0.0296816 -0.00332699 0
0.0296821 -0.00337491 0
0.00914384 -0.00196028 0
0.028946 -0.00565771 0
0.0296825 -0.00343361 0
0.0301115 -0.0044564 0
0.0289551 -0.0056731 0
0.0289642 -0.00568855 0
0.0296828 -0.00349211 0
0.0299676 -0.00507213 0
0.0289776 -0.0057114 0
0.0299256 -0.00394919 0
0.0300633 -0.00429813 0
0.0296831 -0.00356573 0
0.0289908 -0.00573436 0
0.0300901 -0.0048288 0
0.0290097 -0.00576783 0
0.0296832 -0.00363914 0
0.0290283 -0.00580151 0
0.0296854 -0.00551883 0
0.0296832 -0.0037333 0
0.0294184 -0.0057034 0
0.0290543 -0.00584988 0
0.027995 -0.00598836 0
0.0166142 -0.00366407 0
0.0296828 -0.00382723 0
0.0274933 -0.00601487 0
0.0290796 -0.00589869 0
0.0260857 -0.00589835 0
0.0296821 -0.003949 0
0.0291139 -0.00596774 0
0.0300429 -0.00470736 0
0.0284331 -0.00611509 0
0.0286795 -0.0060925 0
0.0296808 -0.00407048 0
0.0291469 -0.00603765 0
0.0299094 -0.00446373 0
0.0297453 -0.00578399 0
0.0296786 -0.0042285 0
0.0299988 -0.00554609 0
0.0291902 -0.00613514 0
0.030045 -0.00543718 0
0.0267485 -0.0062113 0
0.0295407 -0.00608272 0
0.029909 -0.00578952 0
0.0296756 -0.00438615 0
0.0292309 -0.00623421 0
0.0300175 -0.00511508 0
0.0300435 -0.00546107 0
0.0296707 -0.00459059 0
0.029282 -0.00637044 0
0.0297987 -0.00613456 0
0.0274212 -0.00647592 0
0.0292751 -0.00422545 0
0.0298775 -0.00511994 0
0.0288443 -0.0065587 0
0.0296646 -0.00479446 0
0.0292761 -0.00433656 0
0.0288603 -0.00659018 0
0.0293285 -0.00650949 0
0.0288834 -0.00663692 0
0.0260133 -0.00634896 0
0.0292768 -0.00446885 0
0.0299787 -0.00561987 0
0.0299862 -0.00604034 0
0.0289157 -0.00670536 0
0.0296549 -0.00505669 0
0.0292769 -0.00463082 0
0.029383 -0.00669799 0
0.0296475 -0.00660615 0
0.0289598 -0.00680424 0
0.0283171 -0.00684651 0
0.0298265 -0.00649843 0
0.0292759 -0.00483348 0
0.0296431 -0.00531797 0
0.0290172 -0.0069453 0
0.0294294 -0.00689127 0
0.0299317 -0.00612104 0
0.0292726 -0.00509065 0
0.0273242 -0.00693494 0
0.0298189 -0.00594118 0
0.0296251 -0.00564992 0
0.0290882 -0.00714421 0
0.0165043 -0.00392015 0
0.0217419 -0.00557448 0
0.0298967 -0.00675583 0
0.0294776 -0.00714947 0
0.0277845 -0.00715869 0
0.0292654 -0.0054191 0
0.0299138 -0.00667094 0
0.0298258 -0.00697073 0
0.0259075 -0.00679851 0
0.0296038 -0.00598015 0
0.0291692 -0.00742169 0
0.0298629 -0.00672753 0
0.0286734 -0.00744441 0
0.0287728 -0.00522354 0
0.0286804 -0.00746043 0
0.0286872 -0.00747648 0
0.0295119 -0.00741527 0
0.026556 -0.00710399 0
0.0287733 -0.00528747 0
0.0296984 -0.0073194 0
0.0286974 -0.00750022 0
0.0292513 -0.00583831 0
0.0287074 -0.00752404 0
0.0287736 -0.00535124 0
0.0287217 -0.00755871 0
0.0287738 -0.00542552 0
0.0287357 -0.00759356 0
0.0295722 -0.0063931 0
0.0287737 -0.0054996 0
0.0287553 -0.00764351 0
0.0287735 -0.00558844 0
0.0287742 -0.00769381 0
0.0271922 -0.00742575 0
0.0287729 -0.00567704 0
0.0281254 -0.00766448 0
0.0297866 -0.0074611 0
0.0287997 -0.00776481 0
0.029717 -0.00694597 0
0.028772 -0.00578583 0
0.02925 -0.00780471 0
0.028824 -0.00783649 0
0.0295358 -0.00776475 0
0.0292252 -0.00636981 0
0.0287706 -0.00589431 0
0.0295354 -0.00680293 0
0.0297816 -0.00732687 0
0.0283392 -0.00782405 0
0 0 0
0.0288556 -0.00793614 0
0.0287684 -0.00602977 0
0.0257716 -0.00724787 0
0.0288849 -0.00803706 0
0.0287656 -0.0061648 0
0.0287613 -0.00633505 0
0.028921 -0.00817529 0
0.0295375 -0.00812554 0
0.0294826 -0.00730585 0
0.0287561 -0.00650466 0
0.0291797 -0.00703568 0
0.0289531 -0.00831578 0
0.0293098 -0.00832765 0
0.0296879 -0.00808421 0
0.0270347 -0.0079125 0
0.0287482 -0.00671911 0
0.0296674 -0.00803442 0
0.0296304 -0.00827536 0
0.0163226 -0.00420454 0
0.0289893 -0.00850536 0
0.0284047 -0.00842283 0
0.0287388 -0.00693257 0
0.0284172 -0.00845516 0
0.0294217 -0.00780331 0
0.028435 -0.0085031 0
0.0280772 -0.00643092 0
0.0295086 -0.00859145 0
0.0295489 -0.00814371 0
0.0284599 -0.00857316 0
0.0290184 -0.00869878 0
0.0287249 -0.00720157 0
0.028078 -0.00657847 0
0.0278713 -0.00846814 0
0.0256065 -0.00769339 0
0.0284933 -0.00867405 0
0.0280782 -0.00674609 0
0.0262583 -0.00799894 0
0.0291035 -0.00785627 0
0.0273829 -0.00844082 0
0.0287088 -0.00746897 0
0.0285364 -0.00881739 0
0.0290455 -0.00895583 0
0.0280772 -0.0069417 0
0.0295352 -0.00872973 0
0.0293118 -0.00903251 0
0.029337 -0.00840083 0
0.0280743 -0.00717552 0
0.0285886 -0.00901842 0
0.0268353 -0.0084311 0