# vtk DataFile Version 3.0
File generated from DClib
ASCII

DATASET UNSTRUCTURED_GRID
POINTS 1909 float
50 0 0 
48.75 0 0 
50 1.66667 0 
47.5 0 0 
50 3.33333 0 
46.25 0 0 
50 5 0 
45 0 0 
43.75 0 0 
50 6.66667 0 
43 2 0 
42.5 0 0 
50 8.33333 0 
43 4.66667 0 
41.25 0 0 
41.075 2 0 
50 10 0 
40 0 0 
43 7.33333 0 
39.15 2 0 
38.75 0 0 
43 10 0 
37.5 0 0 
37.225 2 0 
36.25 0 0 
36 4 0 
35.3 2 0 
36 5 0 
35 0 0 
35.325 4 0 
36 6 0 
36 7 0 
34.65 4 0 
36 8 0 
33.75 0 0 
33.975 4 0 
36 9 0 
33.375 2 0 
33.3 4 0 
36 10 0 
32.5 0 0 
32.625 4 0 
33 6 0 
31.95 4 0 
33 7.45455 0 
31.45 2 0 
31.25 0 0 
31.95 6 0 
33 8.79545 0 
31.275 4 0 
33 10 0 
30.6 4 0 
30 0 0 
30.9 6 0 
29.925 4 0 
29.525 2 0 
29.85 6 0 
29.25 4 0 
28.75 0 0 
30 8 0 
30 8.45455 0 
28.575 4 0 
29.625 8 0 
30 8.90909 0 
28.8 6 0 
30 9.25 0 
29.782 8.90909 0 
30 9.59091 0 
29.9487 9.59091 0 
29.25 8 0 
29.7462 9.25 0 
30 9.79545 0 
29.897 9.59091 0 
29.564 8.90909 0 
29.9547 9.79545 0 
29.3462 8.45455 0 
29.84 9.59091 0 
30 10 0 
29.8975 9.79545 0 
29.9882 10 0 
29.9902 10.0098 0 
29.7827 9.59091 0 
29.9765 10 0 
29.9804 10.0196 0 
29.9667 10.0098 0 
29.9591 10 0 
29.9686 10.0196 0 
29.9659 10.0341 0 
29.9569 10.0196 0 
29.9418 10 0 
29.9395 10.0196 0 
29.9515 10.0485 0 
29.932 10.0098 0 
29.9424 10.0341 0 
29.8241 9.79545 0 
29.7181 9.59091 0 
29.9166 10 0 
29.9397 10.0485 0 
29.9222 10.0196 0 
29.9279 10.0485 0 
29.9305 10.0695 0 
29.8914 10 0 
29.9077 10.0341 0 
27.9 4 0 
29.897 10.0196 0 
29.9106 10.0485 0 
29.8817 10.0098 0 
29.907 10.0695 0 
29.8933 10.0485 0 
29.9095 10.0905 0 
29.8719 10.0196 0 
27.6 2 0 
29.8556 10 0 
29.8978 10.0905 0 
29.6531 9.59091 0 
29.3437 8.90909 0 
27.5 0 0 
29.8681 10.0485 0 
29.886 10.0905 0 
29.8574 10.0341 0 
29.4839 9.25 0 
29.8723 10.0695 0 
29.7289 9.79545 0 
29.836 10.0196 0 
29.8687 10.0905 0 
29.8197 10 0 
29.8797 10.1203 0 
29.843 10.0485 0 
29.8513 10.0905 0 
29.81 10.0098 0 
29.8561 10.1203 0 
29.8002 10.0196 0 
29.8221 10.0695 0 
29.8072 10.0485 0 
29.8262 10.0905 0 
29.5782 9.59091 0 
29.8498 10.1502 0 
29.7695 10 0 
29.7858 10.0341 0 
29.838 10.1502 0 
29.8215 10.1203 0 
29.8011 10.0905 0 
29.8262 10.1502 0 
29.7714 10.0485 0 
28.875 8 0 
29.75 10.0196 0 
29.8089 10.1502 0 
29.7654 10.0905 0 
29.7193 10 0 
29.7916 10.1502 0 
29.7505 10.0695 0 
29.8079 10.1921 0 
29.7713 10.1203 0 
29.7096 10.0098 0 
29.6047 9.79545 0 
29.503 9.59091 0 
29.7213 10.0485 0 
29.7665 10.1502 0 
29.6999 10.0196 0 
29.7844 10.1921 0 
29.7296 10.0905 0 
29.6856 10.0341 0 
29.7414 10.1502 0 
29.7497 10.1921 0 
29.6503 10 0 
29.7661 10.2339 0 
29.6712 10.0485 0 
29.6999 10.1203 0 
29.7543 10.2339 0 
29.6796 10.0905 0 
29.7057 10.1502 0 
29.7425 10.2339 0 
29.1235 8.90909 0 
29.6309 10.0196 0 
29.6504 10.0695 0 
29.4146 9.59091 0 
29.7252 10.2339 0 
29.6996 10.1921 0 
29.6701 10.1502 0 
29.7079 10.2339 0 
29.6296 10.0905 0 
29.5813 10 0 
29.6023 10.0485 0 
29.5716 10.0098 0 
29.6828 10.2339 0 
29.7086 10.2914 0 
29.2101 9.25 0 
29.562 10.0196 0 
29.6201 10.1502 0 
29.6578 10.2339 0 
29.4428 9.79545 0 
29.5999 10.1203 0 
29.6849 10.2914 0 
29.6283 10.1921 0 
29.5477 10.0341 0 
29.3259 9.59091 0 
29.5608 10.0905 0 
29.5335 10.0485 0 
29.6221 10.2339 0 
29.6503 10.2914 0 
29.5702 10.1502 0 
29.4881 10 0 
29.5128 10.0695 0 
29.6511 10.3489 0 
29.5866 10.2339 0 
29.6392 10.3489 0 
29.4689 10.0196 0 
29.6002 10.2914 0 
29.6273 10.3489 0 
29.4921 10.0905 0 
29.61 10.3489 0 
29.5286 10.1921 0 
29.5016 10.1502 0 
29.5368 10.2339 0 
29.5926 10.3489 0 
29.4405 10.0485 0 
29.2199 9.59091 0 
29.4626 10.1203 0 
29.3949 10 0 
28.9 8.90909 0 
29.5676 10.3489 0 
29.5291 10.2914 0 
29.3853 10.0098 0 
28.6923 8.45455 0 
29.487 10.2339 0 
29.5426 10.3489 0 
29.3758 10.0196 0 
29.5734 10.4266 0 
29.4331 10.1502 0 
29.3993 10.0905 0 
28.5 8 0 
29.3617 10.0341 0 
29.5496 10.4266 0 
29.5071 10.3489 0 
29.2327 9.79545 0 
29.3475 10.0485 0 
29.1136 9.59091 0 
29.4187 10.2339 0 
29.5148 10.4266 0 
29.4716 10.3489 0 
29.3918 10.1921 0 
29.3271 10.0695 0 
29.4298 10.2914 0 
29.2714 10 0 
29.3406 10.1502 0 
28.9208 9.25 0 
29.3066 10.0905 0 
29.4648 10.4266 0 
29.422 10.3489 0 
29.4958 10.5042 0 
29.2524 10.0196 0 
27.75 6 0 
29.3504 10.2339 0 
29.4837 10.5042 0 
29.4718 10.5042 0 
29.2774 10.1203 0 
29.4543 10.5042 0 
29.3724 10.3489 0 
29.2244 10.0485 0 
29.4369 10.5042 0 
29.3938 10.4266 0 
28.9853 9.59091 0 
29.2481 10.1502 0 
28.6766 8.90909 0 
29.4119 10.5042 0 
29.2934 10.2914 0 
27.225 4 0 
29.148 10 0 
29.2582 10.2339 0 
29.1837 10.0905 0 
29.3869 10.5042 0 
29.1385 10.0098 0 
29.3044 10.3489 0 
29.1291 10.0196 0 
29.2072 10.1921 0 
29.3514 10.5042 0 
29.1152 10.0341 0 
29.3929 10.6071 0 
29.2949 10.4266 0 
29.1013 10.0485 0 
29.3686 10.6071 0 
29.316 10.5042 0 
29.2364 10.3489 0 
28.9623 9.79545 0 
29.1257 10.1502 0 
29.1662 10.2339 0 
29.0811 10.0695 0 
28.8566 9.59091 0 
29.3336 10.6071 0 
29.2666 10.5042 0 
29.0609 10.0905 0 
28.9875 10 0 
29.2835 10.6071 0 
29.1448 10.3489 0 
29.0321 10.1203 0 
29.2173 10.5042 0 
29.1098 10.2914 0 
28.125 8 0 
28.9688 10.0196 0 
29.1594 10.4266 0 
28.611 9.25 0 
29.29 10.71 0 
28.4486 8.90909 0 
29.0443 10.2339 0 
29.0033 10.1502 0 
29.2777 10.71 0 
28.9413 10.0485 0 
29.2128 10.6071 0 
29.2655 10.71 0 
29.1497 10.5042 0 
29.2478 10.71 0 
28.7003 9.59091 0 
29.0533 10.3489 0 
29.2303 10.71 0 
28.9629 10.1921 0 
28.9013 10.0905 0 
29.2051 10.71 0 
29.0822 10.5042 0 
29.1801 10.71 0 
28.827 10 0 
29.1144 10.6071 0 
28.8177 10.0098 0 
28.9225 10.2339 0 
28.8085 10.0196 0 
29.1447 10.71 0 
28.7949 10.0341 0 
28.8443 10.1502 0 
28.977 10.4266 0 
28.9322 10.3489 0 
29.1094 10.71 0 
28.7813 10.0485 0 
28.9912 10.5042 0 
29.1562 10.8438 0 
28.5436 9.59091 0 
28.7615 10.0695 0 
28.8669 10.2914 0 
29.1313 10.8438 0 
28.6184 9.79545 0 
29.0602 10.71 0 
28.2207 8.90909 0 
28.7418 10.0905 0 
28.0378 8.45455 0 
28.9798 10.6071 0 
29.0958 10.8438 0 
29.0112 10.71 0 
28.9005 10.5042 0 
28.7136 10.1203 0 
28.7644 10.2339 0 
28.8113 10.3489 0 
29.0454 10.8438 0 
28.6223 10 0 
28.6854 10.1502 0 
28.2746 9.25 0 
28.9441 10.71 0 
28.6042 10.0196 0 
27.75 8 0 
28.9747 10.8438 0 
28.6459 10.1921 0 
28.5773 10.0485 0 
29.0225 10.9775 0 
28.3532 9.59091 0 
28.7804 10.5042 0 
28.736 10.4266 0 
28.8772 10.71 0 
29.0097 10.9775 0 
28.9971 10.9775 0 
28.799 10.6071 0 
28.9791 10.9775 0 
28.5384 10.0905 0 
28.6064 10.2339 0 
28.6543 10.3489 0 
28.9611 10.9775 0 
28.8769 10.8438 0 
27.9867 8.90909 0 
26.25 0 0 
28.9358 10.9775 0 
28.7871 10.71 0 
28.9106 10.9775 0 
28.6607 10.5042 0 
28.4177 10 0 
26.55 4 0 
28.552 10.2914 0 
28.483 10.1502 0 
28.4087 10.0098 0 
28.8751 10.9775 0 
28.3998 10.0196 0 
28.3866 10.0341 0 
28.8399 10.9775 0 
28.6974 10.71 0 
28.3735 10.0485 0 
28.1625 9.59091 0 
28.7436 10.8438 0 
28.4976 10.3489 0 
28.3543 10.0695 0 
28.791 10.9775 0 
28.4052 10.2339 0 
28.3352 10.0905 0 
28.8519 11.1481 0 
28.1869 9.79545 0 
28.5607 10.6071 0 
28.5053 10.5042 0 
28.7423 10.9775 0 
28.8258 11.1481 0 
28.308 10.1203 0 
28.5787 10.71 0 
27.904 9.25 0 
28.7893 11.1481 0 
28.424 10.4266 0 
27.7528 8.90909 0 
28.2807 10.1502 0 
28.6758 10.9775 0 
27.375 8 0 
28.7383 11.1481 0 
28.1619 10 0 
28.5649 10.8438 0 
28.2425 10.1921 0 
28.6096 10.9775 0 
28.1444 10.0196 0 
28.298 10.3489 0 
28.4605 10.71 0 
26.7 6 0 
27.9315 9.59091 0 
28.3503 10.5042 0 
28.6676 11.1481 0 
28.1187 10.0485 0 
28.2042 10.2339 0 
28.5207 10.9775 0 
28.0813 10.0905 0 
28.6814 11.3186 0 
27.3818 8.45455 0 
28.6679 11.3186 0 
28.1516 10.2914 0 
28.5703 11.1481 0 
28.6544 11.3186 0 
28.6358 11.3186 0 
27.5109 8.90909 0 
28.3072 10.71 0 
28.6173 11.3186 0 
28.2524 10.6071 0 
28.4322 10.9775 0 
28.028 10.1502 0 
28.5915 11.3186 0 
28.0989 10.3489 0 
28.33 10.8438 0 
28.5658 11.3186 0 
28.153 10.5042 0 
27.9061 10 0 
27.8975 10.0098 0 
28.5303 11.3186 0 
28.4384 11.1481 0 
27.7002 9.59091 0 
27.889 10.0196 0 
27.8765 10.0341 0 
28.4949 11.3186 0 
28.3154 10.9775 0 
27.9532 10.2339 0 
27.8639 10.0485 0 
28.0276 10.4266 0 
28.1544 10.71 0 
27.8457 10.0695 0 
27.4909 9.25 0 
28.4463 11.3186 0 
27 8 0 
27.8275 10.0905 0 
28.3979 11.3186 0 
27.8015 10.1203 0 
27.6542 9.79545 0 
25.675 2 0 
28.1991 10.9775 0 
27.2691 8.90909 0 
27.9563 10.5042 0 
28.4682 11.5318 0 
28.2625 11.1481 0 
27.7755 10.1502 0 
28.3322 11.3186 0 
27.8502 10.3489 0 
28.4401 11.5318 0 
25.875 4 0 
27.7391 10.1921 0 
28.4019 11.5318 0 
28.0268 10.8438 0 
28.2668 11.3186 0 
27.9602 10.71 0 
28.3498 11.5318 0 
27.4223 9.59091 0 
27.7026 10.2339 0 
27.5927 10 0 
28.0486 10.9775 0 
27.8616 10.6071 0 
27.5762 10.0196 0 
28.1794 11.3186 0 
28.2786 11.5318 0 
27.5519 10.0485 0 
27.6524 10.2914 0 
28.0319 11.1481 0 
27.7108 10.5042 0 
27.5167 10.0905 0 
27.0169 8.90909 0 
28.0924 11.3186 0 
27.6021 10.3489 0 
27.8988 10.9775 0 
28.1818 11.5318 0 
27.7667 10.71 0 
26.625 8 0 
28.255 11.745 0 
27.4664 10.1502 0 
28.2402 11.745 0 
28.2256 11.745 0 
28.2059 11.745 0 
27.978 11.3186 0 
26.7234 8.45455 0 
27.0259 9.25 0 
27.5342 10.4266 0 
28.1863 11.745 0 
27.1442 9.59091 0 
28.0516 11.5318 0 
28.1598 11.745 0 
27.3959 10.2339 0 
28.1334 11.745 0 
27.2793 10 0 
27.2714 10.0098 0 
27.2635 10.0196 0 
27.7086 10.9775 0 
27.6431 10.8438 0 
28.0975 11.745 0 
27.8643 11.3186 0 
27.4661 10.5042 0 
27.2518 10.0341 0 
27.2401 10.0485 0 
28.0617 11.745 0 
26.7648 8.90909 0 
27.5255 10.71 0 
27.7353 11.1481 0 
27.2231 10.0695 0 
28.0133 11.745 0 
27.2061 10.0905 0 
27.8791 11.5318 0 
27.2986 10.3489 0 
27.1818 10.1203 0 
27.9651 11.745 0 
27.3758 10.6071 0 
27.0077 9.79545 0 
27.7174 11.3186 0 
27.1576 10.1502 0 
25 0 0 
27.5193 10.9775 0 
27.9003 11.745 0 
27.1236 10.1921 0 
26.25 8 0 
27.9939 12.0061 0 
25.65 6 0 
27.8359 11.745 0 
26.8136 9.59091 0 
27.0896 10.2339 0 
27.9626 12.0061 0 
27.2853 10.71 0 
25.2 4 0 
27.5713 11.3186 0 
27.9218 12.0061 0 
26.4998 8.90909 0 
27.167 10.5042 0 
27.6541 11.5318 0 
27.0427 10.2914 0 
27.7503 11.745 0 
26.9033 10 0 
27.8677 12.0061 0 
26.8882 10.0196 0 
26.8659 10.0485 0 
26.9958 10.3489 0 
27.2836 10.9775 0 
27.6652 11.745 0 
27.3609 11.1481 0 
27.7955 12.0061 0 
26.499 9.25 0 
[...]
POINT_DATA 1909
SCALARS phi float 1
LOOKUP_TABLE default
VECTORS Displacement float
0 0 0
0 0 0
0 -0.000730245 0
0 0 0
0 -0.000283568 0
0 0 0
0 0.00119825 0
0 0 0
0 0 0
0 0.00359984 0
0.006809 -0.000327647 0
0 0 0
0 0.00685746 0
0.0130476 0.00231128 0
0 0 0
0.00912524 -0.000329316 0
0 0.0108094 0
0 0 0
0.0173565 0.00770026 0
0.0115721 -0.00037788 0
0 0 0
0.0199047 0.0148168 0
0 0 0
0.0140846 -0.000500357 0
0 0 0
0.0264815 0.00158468 0
0.0165294 -0.000683555 0
0.0316614 0.00356496 0
0 0 0
0.0283635 0.00144265 0
0.0354554 0.00613355 0
0.0381583 0.00909558 0
0.030127 0.00129644 0
0.0401535 0.0122295 0
0 0 0
0.0318551 0.00107629 0
0.0413953 0.0154736 0
0.0187915 -0.000912251 0
0.033491 0.000842798 0
0.0420821 0.018677 0
0 0 0
0.0350389 0.000571802 0
0.0456424 0.00505782 0
0.0364926 0.000285695 0
0.0507315 0.00972533 0
0.0207844 -0.00117992 0
0 0 0
0.0491361 0.00370578 0
0.0534614 0.015039 0
0.037847 -2.58344e-05 0
0.0537889 0.0203777 0
0.039098 -0.000353477 0
0 0 0
0.0519087 0.00251529 0
0.0402477 -0.000702485 0
0.0224363 -0.00148869 0
0.054234 0.00130971 0
0.0412866 -0.00107168 0
0 0 0
0.063924 0.00541797 0
0.0657967 0.00670591 0
0.0422208 -0.00146084 0
0.0650121 0.00456421 0
0.0676677 0.0081622 0
0.0561601 3.81409e-05 0
0.068786 0.00954292 0
0.0684965 0.00743286 0
0.0697061 0.0111447 0
0.0699636 0.0107037 0
0.0659685 0.00373935 0
0.0698053 0.00837878 0
0.0698934 0.0122625 0
0.0701936 0.010329 0
0.0692194 0.00669918 0
0.0701379 0.0117276 0
0.0678293 0.00493249 0
0.0704187 0.00996065 0
0.0696701 0.0134904 0
0.0704596 0.0112169 0
0.0697653 0.0134541 0
0.075238 0.0154228 0
0.070631 0.00963131 0
0.0698766 0.0133956 0
0.0775825 0.0160895 0
0.0750646 0.0151808 0
0.0700443 0.0132633 0
0.0774464 0.01594 0
0.077806 0.0159451 0
0.0772884 0.0157592 0
0.0702175 0.0131243 0
0.0770476 0.0154757 0
0.0778098 0.0157556 0
0.0748551 0.0147025 0
0.077713 0.0156124 0
0.0708723 0.0106974 0
0.0708635 0.0093112 0
0.0704625 0.0128877 0
0.0778037 0.0155916 0
0.0768121 0.0151933 0
0.0777981 0.0154319 0
0.077864 0.0154907 0
0.0707042 0.0126627 0
0.0774766 0.0151223 0
0.0430354 -0.00187719 0
0.0765273 0.0147868 0
0.0777786 0.0152079 0
0.0746518 0.0139997 0
0.0778451 0.0151784 0
0.0777424 0.0149805 0
0.0779044 0.0152271 0
0.0762832 0.0144048 0
0.0236712 -0.00184519 0
0.0710377 0.0123252 0
0.0778925 0.0150711 0
0.0710926 0.0090246 0
0.0698994 0.00602302 0
0 0 0
0.0776639 0.0146513 0
0.0778802 0.0149163 0
0.0770997 0.0144131 0
0.0706749 0.00737001 0
0.077819 0.0147249 0
0.0713889 0.0101702 0
0.0760189 0.0138804 0
0.0778613 0.014688 0
0.0713577 0.0120266 0
0.0780075 0.0148644 0
0.0775508 0.0143228 0
0.0778462 0.0144644 0
0.0745273 0.013099 0
0.0779805 0.0145548 0
0.0758118 0.0134167 0
0.077748 0.0140893 0
0.0773794 0.0138637 0
0.0778245 0.014149 0
0.0713663 0.00873469 0
0.0781264 0.0145069 0
0.0717821 0.0116457 0
0.0766363 0.0134726 0
0.0781119 0.0143542 0
0.0779425 0.0141148 0
0.0778083 0.0138473 0
0.078098 0.0142042 0
0.0771874 0.0134352 0
0.0668794 0.00292112 0
0.0755946 0.0128266 0
0.0780782 0.0139886 0
0.0777765 0.0134464 0
0.0721774 0.0113088 0
0.0780586 0.0137796 0
0.0775649 0.01327 0
0.0782949 0.01402 0
0.077897 0.0135234 0
0.074513 0.0120942 0
0.0720177 0.00961941 0
0.0716396 0.00846221 0
0.0769408 0.0128814 0
0.0780322 0.0134883 0
0.0754528 0.012322 0
0.0782694 0.0137322 0
0.077734 0.0130739 0
0.076166 0.0123898 0
0.0780066 0.0132128 0
0.0782343 0.0133316 0
0.0726785 0.0109207 0
0.0784773 0.0135579 0
0.0767171 0.0123933 0
0.0778483 0.0127888 0
0.0784652 0.01342 0
0.0776551 0.012607 0
0.0779759 0.012848 0
0.0784533 0.0132854 0
0.0705212 0.00537881 0
0.0753295 0.0117295 0
0.0772422 0.0123164 0
0.0719699 0.0081675 0
0.0784364 0.0130939 0
0.0781896 0.0128048 0
0.0779533 0.0125203 0
0.0784203 0.0129104 0
0.0775598 0.0121948 0
0.0731365 0.0105616 0
0.0764783 0.0118166 0
0.0746965 0.0110794 0
0.0783989 0.01266 0
0.0787226 0.0129596 0
0.0715495 0.00649556 0
0.0753285 0.0112299 0
0.0779293 0.0121195 0
0.0783805 0.0124293 0
0.0727858 0.00902098 0
0.0777763 0.0119814 0
0.0787057 0.0127133 0
0.0781418 0.0121789 0
0.0758685 0.0112935 0
0.0723034 0.00788148 0
0.0774282 0.0117021 0
0.0763331 0.0113199 0
0.0783593 0.0121323 0
0.0786842 0.012382 0
0.0779161 0.0117728 0
0.0737029 0.0101576 0
0.0768903 0.0113123 0
0.0789716 0.0124147 0
0.0783445 0.0118701 0
0.0789646 0.012304 0
0.0753989 0.0106594 0
0.0786598 0.0119693 0
0.0789582 0.0121989 0
0.0773074 0.01126 0
0.0789502 0.012052 0
0.0781145 0.0115011 0
0.0778995 0.0113529 0
0.0783335 0.0115441 0
0.0789439 0.011916 0
0.0762529 0.0107329 0
0.0726992 0.00755041 0
0.0776695 0.0111259 0
0.0742153 0.00975931 0
0.0711256 0.00475649 0
0.0789382 0.0117344 0
0.0786411 0.0114907 0
0.0751721 0.010064 0
0.0695067 0.00332855 0
0.0783303 0.0112493 0
0.0789351 0.011568 0
0.0755649 0.0101466 0
0.0793648 0.0117915 0
0.0778865 0.0109647 0
0.0771985 0.0107054 0
0.067708 0.00208843 0
0.075941 0.0101857 0
0.0793588 0.0116198 0
0.0789363 0.0113522 0
0.0737123 0.00831346 0
0.0762791 0.0102037 0
0.0730961 0.00721984 0
0.078336 0.0108724 0
0.079354 0.011397 0
0.0789399 0.0111496 0
0.0781135 0.0107328 0
0.076744 0.0102106 0
0.0786419 0.0109281 0
0.0748315 0.00928323 0
0.0778781 0.0104678 0
0.0724424 0.00563449 0
0.077142 0.0101864 0
0.0793543 0.0111107 0
0.0789485 0.0108836 0
0.0797446 0.0112767 0
0.0758125 0.00953949 0
0.0576754 -0.00131953 0
0.0783462 0.0105119 0
0.0797463 0.0112086 0
0.0797483 0.0111427 0
0.0775757 0.0101056 0
0.0797525 0.011049 0
0.0789595 0.0106266 0
0.0764016 0.00956608 0
0.0797571 0.0109576 0
0.0793658 0.0107389 0
0.0735597 0.00681905 0
0.0778762 0.00998783 0
0.0717061 0.00413917 0
0.0797633 0.01083 0
0.0786728 0.0102233 0
0.0437376 -0.00231193 0
0.075384 0.00879496 0
0.0783667 0.0100423 0
0.0771481 0.00953646 0
0.0797702 0.0107048 0
0.0758795 0.00893087 0
0.0789794 0.0102835 0
0.076103 0.00895779 0
0.0781414 0.0097841 0
0.07978 0.0105313 0
0.0763575 0.00896608 0
0.0803173 0.0107331 0
0.0793953 0.0102482 0
0.0765885 0.0089618 0
0.0803195 0.0106162 0
0.0797911 0.0103607 0
0.0790044 0.00995015 0
0.0747796 0.00740141 0
0.0778999 0.00937005 0
0.0783966 0.00958583 0
0.0769278 0.00895085 0
0.0740131 0.00640977 0
0.0803244 0.0104511 0
0.0798094 0.0101259 0
0.0772357 0.00892343 0
0.0760259 0.00818444 0
0.0803355 0.0102188 0
0.0790471 0.00951101 0
0.0776204 0.0088585 0
0.0798304 0.00989546 0
0.0787487 0.00932699 0
0.0684819 0.001235 0
0.0764849 0.00825152 0
0.079456 0.00960401 0
0.0733486 0.00471658 0
0.0808478 0.0102465 0
0.0722706 0.00350663 0
0.0784522 0.0089979 0
0.077946 0.0087683 0
0.0808495 0.0101927 0
0.0768793 0.0082298 0
0.0803583 0.00989661 0
0.0808513 0.0101391 0
0.0798638 0.00958433 0
0.0808547 0.0100619 0
0.0745334 0.00590133 0
0.0791005 0.00908339 0
0.0808587 0.00998507 0
0.0782462 0.00859425 0
0.0774217 0.00816983 0
0.080865 0.0098755 0
0.0799021 0.00927926 0
0.0808724 0.00976671 0
0.0765896 0.00754684 0
0.0804007 0.00945783 0
0.0767415 0.00755343 0
0.0785325 0.00842549 0
0.0768935 0.00755712 0
0.0808842 0.00961359 0
0.0770526 0.00753721 0
0.0780465 0.00801032 0
0.0795707 0.00877306 0
0.0791852 0.00853244 0
0.0808977 0.00946167 0
0.0772098 0.00751463 0
0.0799608 0.00887475 0
0.0815168 0.00966715 0
0.0750257 0.00537666 0
0.0774427 0.00748032 0
0.078916 0.00820468 0
0.0815192 0.00956456 0
0.0759359 0.00617958 0
0.0809187 0.00925131 0
0.0728052 0.00286424 0
0.077667 0.00743911 0
0.0709007 0.00166805 0
0.0804754 0.00887062 0
0.0815243 0.00941854 0
0.0809421 0.00904258 0
0.0800262 0.00847786 0
0.0779489 0.00736093 0
0.0786679 0.00770825 0
0.0792873 0.00799493 0
0.0815349 0.00921148 0
0.0772003 0.00672944 0
0.078215 0.00727473 0
0.0742458 0.0036875 0
0.0809775 0.00875795 0
0.077395 0.00670179 0
0.0691679 0.000362545 0
0.0815553 0.00892068 0
0.0785407 0.00714326 0
0.0776597 0.00664524 0
0.0820906 0.00911902 0
0.0755732 0.00471925 0
0.080121 0.00796007 0
0.0797665 0.00772047 0
0.081016 0.00847524 0
0.082092 0.00906903 0
0.0820937 0.00901926 0
0.0805971 0.00809688 0
0.0820968 0.00894804 0
0.0780279 0.0065492 0
0.0788412 0.0070104 0
0.0794363 0.00731337 0
0.0821002 0.00887698 0
0.0815922 0.00851689 0
0.073314 0.00219135 0
0 0 0
0.0821056 0.008776 0
0.0810717 0.00809546 0
0.0821117 0.00867503 0
0.0802209 0.00744892 0
0.0776943 0.00586752 0
0.0443089 -0.0027843 0
0.0792291 0.00682721 0
0.0784982 0.00638678 0
0.0777747 0.00584769 0
0.0821211 0.00853272 0
0.0778542 0.00582731 0
0.0779675 0.0057959 0
0.0821316 0.00839014 0
0.0811298 0.00771697 0
0.0780788 0.00576319 0
0.0760715 0.00404077 0
0.0816541 0.00796312 0
0.0795958 0.00664177 0
0.0782358 0.00571365 0
0.0821475 0.00819132 0
0.0790882 0.00613911 0
0.0783891 0.00566202 0
0.0827303 0.00844263 0
0.0770782 0.00453886 0
0.0807773 0.00708497 0
0.0803578 0.00678519 0
0.0821649 0.00799173 0
0.0827322 0.00834037 0
0.0786007 0.00558513 0
0.0812102 0.0072142 0
0.075101 0.00250012 0
0.0827358 0.0081966 0
0.0800594 0.00638581 0
0.0737787 0.00150011 0
0.078805 0.00550543 0
0.0821903 0.00771695 0
0.0697789 -0.00053391 0
0.0827429 0.00799334 0
0.0782076 0.00478928 0
0.0817488 0.00721171 0
0.0790816 0.00538876 0
0.0822173 0.0074404 0
0.0783388 0.00474417 0
0.0798133 0.00577896 0
0.0812903 0.00670964 0
0.058756 -0.00278236 0
0.0765943 0.00319251 0
0.0804924 0.00612088 0
0.082756 0.00770657 0
0.0785308 0.00467458 0
0.0793477 0.0052668 0
0.0822554 0.00706466 0
0.0788024 0.00456792 0
0.0832223 0.00776102 0
0.0720411 -6.68387e-05 0
0.0832234 0.0077073 0
0.0796964 0.00509189 0
0.0827789 0.00730452 0
0.0832246 0.00765371 0
0.0832266 0.00757886 0
0.0742079 0.000768076 0
0.0813961 0.00604452 0
0.0832287 0.00750399 0
0.081018 0.00575521 0
0.0822943 0.00668526 0
0.0791754 0.00440571 0
0.083232 0.00739904 0
0.0800267 0.00490855 0
0.081881 0.00619959 0
0.0832356 0.00729379 0
0.0806687 0.00525524 0
0.0786358 0.00370035 0
0.0786968 0.00367592 0
0.0832409 0.00714657 0
0.0828157 0.0067457 0
0.0770465 0.00232327 0
0.0787575 0.0036512 0
0.0788445 0.00361432 0
0.0832467 0.00699854 0
0.0823468 0.00617649 0
0.0796673 0.0041611 0
0.0789309 0.00357686 0
0.0804456 0.00464926 0
0.0814973 0.00537109 0
0.0790539 0.00352151 0
0.0758732 0.00111124 0
0.0832552 0.00679287 0
0.0702985 -0.00145292 0
0.0791754 0.00346494 0
0.0832642 0.00658555 0
0.0793452 0.00338224 0
0.0780764 0.00240865 0
0.0243982 -0.00225445 0
0.0823984 0.00566089 0
0.0745817 1.59181e-05 0
0.080836 0.00437721 0
0.0836723 0.00688198 0
0.0828703 0.00597691 0
0.0795118 0.00329697 0
0.0832771 0.00630036 0
0.0802894 0.00379521 0
0.083674 0.00676375 0
0.0447545 -0.0032699 0
0.0797383 0.00317355 0
0.0836765 0.00660198 0
0.082048 0.00484442 0
0.0832905 0.00601217 0
0.0816245 0.00449262 0
0.0836807 0.00637791 0
0.0774963 0.00125704 0
0.079958 0.00304563 0
0.0790783 0.00236659 0
0.0824642 0.00497915 0
0.0813111 0.00399862 0
0.0791837 0.00231397 0
0.0833088 0.00562064 0
0.0836872 0.00606628 0
0.0793377 0.00223436 0
0.0802484 0.00286263 0
0.0829431 0.00493168 0
0.0810368 0.00325411 0
0.079556 0.00211495 0
0.0749117 -0.000785409 0
0.0833271 0.00522421 0
0.0805259 0.00267185 0
0.082526 0.0042865 0
0.0836973 0.00563365 0
0.0817418 0.00359984 0
0.0707385 -0.00240461 0
0.0839387 0.00595239 0
0.0798563 0.00193704 0
0.0839395 0.00588668 0
0.0839404 0.00582119 0
0.0839415 0.00573296 0
0.0833506 0.00469337 0
0.072875 -0.0019127 0
0.0765129 -0.000519091 0
0.0808804 0.00240245 0
0.0839427 0.00564482 0
0.0778589 0.000173901 0
0.0837117 0.00503673 0
0.0839443 0.00552451 0
0.0802561 0.00167342 0
0.0839459 0.00540406 0
0.0794307 0.0010201 0
0.0794785 0.000991928 0
0.0795259 0.000963531 0
0.082599 0.00338693 0
0.0822363 0.00305277 0
0.083948 0.00523884 0
0.0833726 0.00415525 0
0.081212 0.00212007 0
0.0795952 0.000921313 0
0.0796638 0.00087859 0
0.0839502 0.00507308 0
0.0751803 -0.00160436 0
0.0818752 0.00246229 0
0.0830279 0.00353129 0
0.0797622 0.000815823 0
0.083953 0.00484611 0
0.0798593 0.000752033 0
0.08373 0.00422103 0
0.0807667 0.00128497 0
0.0799955 0.000659429 0
0.0839556 0.00461793 0
0.081617 0.00172703 0
0.0788545 -0.000248018 0
0.0833981 0.00344666 0
0.080129 0.000564868 0
0 0 0
0.0826616 0.00247407 0
0.0839588 0.00430758 0
0.0803113 0.000429206 0
0.0710792 -0.00337972 0
0.0840419 0.00473842 0
0.0593734 -0.00436373 0
0.0839615 0.00399501 0
0.0781824 -0.00112995 0
0.0804884 0.000289796 0
0.0840433 0.00458851 0
0.0819835 0.00131333 0
0.0450555 -0.00380818 0
0.083419 0.00272855 0
0.084045 0.00439157 0
0.0753981 -0.00248031 0
0.0813845 0.000716224 0
0.0837483 0.00312083 0
0.080723 9.21348e-05 0
0.0839642 0.00357432 0
0.0797415 -0.00061101 0
0.0840468 0.00412775 0
0.0798254 -0.000671222 0
0.0799473 -0.000761528 0
0.0809475 -0.000112306 0
0.0827238 0.00131632 0
0.0839655 0.00315003 0
0.0831053 0.00169259 0
0.0840485 0.00377066 0
0.0769664 -0.00242432 0
0.08012 -0.000895527 0
0.0824036 0.000746451 0
0.0834374 0.00180145 0
0.0812343 -0.000398714 0
0.0840491 0.00328589 0
0.083965 0.00258672 0
0.080358 -0.00109261 0
0.0820785 -0.000109677 0
0.0755518 -0.00336961 0
0.073372 -0.00386976 0
0.0783965 -0.00244572 0
0.0837555 0.00166155 0
0.0815027 -0.000696753 0
0.0713304 -0.00438444 0
0.0839279 0.00343594 0
0.080675 -0.00138039 0
0.0839614 0.0020183 0
0.0839286 0.00335032 0
0.0840468 0.00262979 0
0.0827618 0.000148107 0
0.0839291 0.003265 0
0.0834447 0.000864143 0
0.0839297 0.0031551 0
0.0839301 0.00304545 0
0.0839305 0.0029011 0
0.0799299 -0.00224899 0
0.0818296 -0.00110888 0
0.0799672 -0.00228077 0
0.0800042 -0.00231273 0
0.0839307 0.00275689 0
0.0800586 -0.00236018 0
0.0810795 -0.00179797 0
0.0839518 0.0012759 0
0.0801124 -0.002408 0
0.0839306 0.0025647 0
0.0801896 -0.00247802 0
0.0840372 0.00174861 0
0.0839301 0.00237245 0
0.0802658 -0.00254884 0
0.0803725 -0.00265114 0
0.0756478 -0.00432358 0
0.0821242 -0.00153998 0
0.0839289 0.00211516 0
0.0831305 -0.00065757 0
0.083436 -0.00031859 0
0.080477 -0.00275504 0
0.0839357 0.000527336 0
0.0839268 0.00185746 0
0.0827732 -0.00129574 0
0.0792639 -0.00346349 0
0.0806195 -0.00290318 0
0.0837271 -0.000233593 0
0.0815672 -0.00240018 0
0.0839229 0.00151333 0
0.0785214 -0.00399783 0
0.0807576 -0.0030544 0
0.0714763 -0.00540997 0
0.0840117 0.000579133 0
0.0452124 -0.00434627 0
0.0839177 0.00116829 0
0.082459 -0.00212745 0
0.07717 -0.00463248 0
0.0809403 -0.00326731 0
0.0839051 -0.000431845 0
0.0835199 0.00175749 0
0.0834042 -0.00150886 0
0.0839086 0.000710878 0
0.0835211 0.00155854 0
0.0811146 -0.0034859 0
0.0756786 -0.00528636 0
0.0835218 0.00130932 0
0.0800009 -0.004182 0
0.0800663 -0.00424898 0
0.0838969 0.000251916 0
0.08274 -0.00274423 0
0.0821095 -0.00326244 0
0.0835215 0.00098911 0
0.0801609 -0.00434895 0
0.0813365 -0.00378986 0
0.0838619 -0.00139681 0
0.0802948 -0.00449636 0
0.0735294 -0.00591968 0
0.0839541 -0.000948599 0
0.083519 0.000570689 0
0.0838777 -0.000349662 0
0.0815429 -0.00410381 0
0.0804788 -0.00471139 0
0.0595027 -0.00607211 0
0.0833319 -0.00297401 0
0.0785118 -0.00555615 0
0.0835121 1.92069e-05 0
0.0836173 -0.00263275 0
0.0715273 -0.00645754 0
0.0838539 -0.000953325 0
0.0830216 -0.00357074 0
0.0807225 -0.00502212 0
0.0817924 -0.00453478 0
0.0756415 -0.00632217 0
0.0837891 -0.00260669 0
0.0834967 -0.000708666 0
0 0 0
0.0838162 -0.00173303 0
0.0826379 -0.00448526 0
0.0828652 -4.4976e-05 0
0.0810312 -0.00546749 0
0.0820145 -0.0049824 0
0.0828657 -0.000160233 0
0.0828659 -0.000275134 0
0.0245133 -0.00271053 0
0.079912 -0.00611061 0
0.0828659 -0.000415944 0
0.0838359 -0.00290506 0
0.0799407 -0.00614553 0
0.0799691 -0.00618059 0
0.0828657 -0.000556398 0
0.0832189 -0.00443996 0
0.080011 -0.00623254 0
0.0834657 -0.00166496 0
0.0837704 -0.00251477 0
0.0828649 -0.000733319 0
0.0800525 -0.0062848 0
0.0836937 -0.00381924 0
0.0801119 -0.00636112 0
0.0828637 -0.000909891 0
0.0801703 -0.00643808 0
0.0822622 -0.00558827 0
0.0828615 -0.0011366 0
0.0813987 -0.00610111 0
0.080252 -0.00654886 0
0.0770397 -0.00716594 0
0.0452062 -0.00495623 0
0.0828586 -0.00136299 0
0.0755377 -0.00736315 0
0.0803318 -0.00666094 0
0.0714726 -0.00752097 0
0.0828537 -0.00165687 0
0.0804402 -0.00682002 0
0.0837002 -0.0035068 0
0.0783534 -0.00735495 0
0.0790994 -0.00723509 0
0.0828476 -0.00195045 0
0.0805449 -0.00698163 0
0.0834067 -0.00290933 0
0.0824639 -0.00622029 0
0.0828378 -0.00233292 0
0.0833505 -0.00558245 0
0.0806826 -0.00720792 0
0.0835447 -0.00530351 0
0.0733595 -0.00804124 0
0.0817974 -0.0069957 0
0.0830274 -0.00619649 0
0.0828259 -0.00271511 0
0.0808132 -0.00743892 0
0.0836162 -0.00449938 0
0.0836102 -0.00535146 0
0.0828075 -0.00321165 0
0.0809779 -0.00775811 0
0.0826548 -0.00706217 0
0.0753527 -0.00848476 0
0.0817839 -0.00231478 0
0.0832996 -0.00450595 0
0.0796225 -0.00832352 0
0.0827855 -0.0037078 0
0.0817848 -0.00258472 0
0.0796729 -0.00839595 0
0.0811294 -0.00808564 0
0.0797456 -0.00850375 0
0.0713243 -0.0085997 0
0.0817844 -0.00290649 0
0.0834916 -0.00573358 0
0.0833585 -0.00678326 0
0.0798479 -0.00866205 0
0.0827521 -0.00434737 0
0.0817818 -0.00330098 0
0.0813097 -0.0085322 0
0.0821652 -0.0082472 0
0.0799877 -0.00889163 0
0.0780357 -0.0091514 0
0.0827722 -0.00794252 0
0.0817751 -0.00379538 0
0.0827129 -0.00498611 0
0.0801713 -0.00922091 0
0.0814665 -0.00899283 0
0.0833446 -0.00696433 0
0.0817613 -0.00442402 0
0.0750976 -0.0096087 0
0.083113 -0.00651762 0
0.0826545 -0.00579963 0
0.0804008 -0.00968843 0
0.0450353 -0.00553766 0
0.0591248 -0.00791043 0
0.0830845 -0.00854825 0
0.0816354 -0.00961207 0
0.0764772 -0.0100345 0
0.0817349 -0.00522882 0
0.0832075 -0.00832713 0
0.0828181 -0.00909351 0
0.0710764 -0.00968858 0
0.0825867 -0.0066111 0
0.0806681 -0.0103462 0
0.0831338 -0.00846016 0
0.0791418 -0.0105147 0
0.0804445 -0.00474016 0
0.0791636 -0.010552 0
0.0791852 -0.0105895 0
0.0817648 -0.0102537 0
0.0728776 -0.0102176 0
0.0804448 -0.00489717 0
0.0823892 -0.0099766 0
0.0792174 -0.0106448 0
0.0816871 -0.00625902 0
0.0792491 -0.0107004 0
0.0804446 -0.00505385 0
0.0792946 -0.0107815 0
0.0804439 -0.00523645 0
0.0793393 -0.0108631 0
0.0824883 -0.00762864 0
0.0804426 -0.00541867 0
0.0794016 -0.0109802 0
0.0804404 -0.00563733 0
0.0794621 -0.0110984 0
0.0747447 -0.0108191 0
0.0804375 -0.00585554 0
0.0775085 -0.0111757 0
0.0827545 -0.0102971 0
0.0795441 -0.0112656 0
0.0828005 -0.00899667 0
0.080433 -0.00612366 0
0.0809463 -0.0112633 0
0.0796227 -0.0114348 0
0.0818727 -0.0111027 0
0.0816036 -0.00756963 0
0.0804274 -0.0063912 0
0.0823751 -0.00864148 0
0.0828885 -0.00994491 0
0.0781536 -0.0115133 0
0 0 0
0.0797254 -0.0116708 0
0.080419 -0.00672557 0
0.0707408 -0.0107878 0
0.0798219 -0.0119105 0
0.0804089 -0.00705916 0
0.0803938 -0.00748019 0
0.0799421 -0.0122402 0
0.0819172 -0.011985 0
0.0822148 -0.00988808 0
0.0803762 -0.00790007 0
0.0814625 -0.00921813 0
0.0800508 -0.0125766 0
0.0811786 -0.0125295 0
0.0825332 -0.0118368 0
0.0743204 -0.0120279 0
0.0803502 -0.00843156 0
0.0825489 -0.0117051 0
0.0822942 -0.0123263 0
0.0446755 -0.00620742 0
0.0801771 -0.0130325 0
0.0783881 -0.0129555 0
0.08032 -0.00896126 0
0.0784279 -0.0130316 0
0.0820323 -0.011125 0
0.0784846 -0.0131446 0
0.0785676 -0.00770794 0
0.0818852 -0.0131316 0
0.0822979 -0.0119737 0
0.0785638 -0.0133101 0
0.0802832 -0.0134999 0
0.0802762 -0.00962967 0
0.0785681 -0.00807441 0
0.0768058 -0.0131826 0
0.0703171 -0.0118909 0
0.0786714 -0.0135491 0
0.0785663 -0.00849109 0
0.0720975 -0.0124353 0
0.0812317 -0.0112587 0
0.0753806 -0.0132252 0
0.080226 -0.0102951 0
0.0788115 -0.01389 0
0.0803909 -0.0141242 0
0.0785609 -0.00897776 0
0.08216 -0.0134423 0
0.0812638 -0.0142566 0
0.0817805 -0.0126153 0
0.0785496 -0.00956012 0
0.0789839 -0.0143706 0
0.0737781 -0.0133256 0
0.0817571 -0.0143236 0
0.0801541 -0.0111279 0
0.0804645 -0.0147668 0
0.0582251 -0.00986069 0
0.078529 -0.0102703 0
0.0800723 -0.0119556 0
0.0791795 -0.0150406 0
0.0239282 -0.00318432 0
0.081497 -0.0140877 0
0.0784931 -0.0111471 0
0.0698137 -0.0129989 0
0.0805089 -0.0156116 0
0.0808669 -0.0137341 0
0.0799573 -0.0129785 0
0.0816404 -0.0154473 0
0.0774293 -0.015346 0
0.0774462 -0.0153848 0
0.0774629 -0.0154236 0
0.0774882 -0.015481 0
0.081474 -0.0158403 0
0.0775131 -0.0155385 0
0.0793727 -0.0159649 0
0.0815237 -0.0154456 0
0.0775492 -0.0156223 0
0.0784326 -0.0122353 0
0.0775846 -0.0157065 0
0.0776339 -0.0158272 0
0.0758444 -0.0153817 0