# vtk DataFile Version 3.0
File generated from DClib
ASCII

DATASET UNSTRUCTURED_GRID
POINTS 1909 float
50 0 0 
48.75 0 0 
50 1.66667 0 
47.5 0 0 
50 3.33333 0 
46.25 0 0 
50 5 0 
45 0 0 
43.75 0 0 
50 6.66667 0 
43 2 0 
42.5 0 0 
50 8.33333 0 
43 4.66667 0 
41.25 0 0 
41.075 2 0 
50 10 0 
40 0 0 
43 7.33333 0 
39.15 2 0 
38.75 0 0 
43 10 0 
37.5 0 0 
37.225 2 0 
36.25 0 0 
36 4 0 
35.3 2 0 
36 5 0 
35 0 0 
35.325 4 0 
36 6 0 
36 7 0 
34.65 4 0 
36 8 0 
33.75 0 0 
33.975 4 0 
36 9 0 
33.375 2 0 
33.3 4 0 
36 10 0 
32.5 0 0 
32.625 4 0 
33 6 0 
31.95 4 0 
33 7.45455 0 
31.45 2 0 
31.25 0 0 
31.95 6 0 
33 8.79545 0 
31.275 4 0 
33 10 0 
30.6 4 0 
30 0 0 
30.9 6 0 
29.925 4 0 
29.525 2 0 
29.85 6 0 
29.25 4 0 
28.75 0 0 
30 8 0 
30 8.45455 0 
28.575 4 0 
29.625 8 0 
30 8.90909 0 
28.8 6 0 
30 9.25 0 
29.782 8.90909 0 
30 9.59091 0 
29.9487 9.59091 0 
29.25 8 0 
29.7462 9.25 0 
30 9.79545 0 
29.897 9.59091 0 
29.564 8.90909 0 
29.9547 9.79545 0 
29.3462 8.45455 0 
29.84 9.59091 0 
30 10 0 
29.8975 9.79545 0 
29.9882 10 0 
29.9902 10.0098 0 
29.7827 9.59091 0 
29.9765 10 0 
29.9804 10.0196 0 
29.9667 10.0098 0 
29.9591 10 0 
29.9686 10.0196 0 
29.9659 10.0341 0 
29.9569 10.0196 0 
29.9418 10 0 
29.9395 10.0196 0 
29.9515 10.0485 0 
29.932 10.0098 0 
29.9424 10.0341 0 
29.8241 9.79545 0 
29.7181 9.59091 0 
29.9166 10 0 
29.9397 10.0485 0 
29.9222 10.0196 0 
29.9279 10.0485 0 
29.9305 10.0695 0 
29.8914 10 0 
29.9077 10.0341 0 
27.9 4 0 
29.897 10.0196 0 
29.9106 10.0485 0 
29.8817 10.0098 0 
29.907 10.0695 0 
29.8933 10.0485 0 
29.9095 10.0905 0 
29.8719 10.0196 0 
27.6 2 0 
29.8556 10 0 
29.8978 10.0905 0 
29.6531 9.59091 0 
29.3437 8.90909 0 
27.5 0 0 
29.8681 10.0485 0 
29.886 10.0905 0 
29.8574 10.0341 0 
29.4839 9.25 0 
29.8723 10.0695 0 
29.7289 9.79545 0 
29.836 10.0196 0 
29.8687 10.0905 0 
29.8197 10 0 
29.8797 10.1203 0 
29.843 10.0485 0 
29.8513 10.0905 0 
29.81 10.0098 0 
29.8561 10.1203 0 
29.8002 10.0196 0 
29.8221 10.0695 0 
29.8072 10.0485 0 
29.8262 10.0905 0 
29.5782 9.59091 0 
29.8498 10.1502 0 
29.7695 10 0 
29.7858 10.0341 0 
29.838 10.1502 0 
29.8215 10.1203 0 
29.8011 10.0905 0 
29.8262 10.1502 0 
29.7714 10.0485 0 
28.875 8 0 
29.75 10.0196 0 
29.8089 10.1502 0 
29.7654 10.0905 0 
29.7193 10 0 
29.7916 10.1502 0 
29.7505 10.0695 0 
29.8079 10.1921 0 
29.7713 10.1203 0 
29.7096 10.0098 0 
29.6047 9.79545 0 
29.503 9.59091 0 
29.7213 10.0485 0 
29.7665 10.1502 0 
29.6999 10.0196 0 
29.7844 10.1921 0 
29.7296 10.0905 0 
29.6856 10.0341 0 
29.7414 10.1502 0 
29.7497 10.1921 0 
29.6503 10 0 
29.7661 10.2339 0 
29.6712 10.0485 0 
29.6999 10.1203 0 
29.7543 10.2339 0 
29.6796 10.0905 0 
29.7057 10.1502 0 
29.7425 10.2339 0 
29.1235 8.90909 0 
29.6309 10.0196 0 
29.6504 10.0695 0 
29.4146 9.59091 0 
29.7252 10.2339 0 
29.6996 10.1921 0 
29.6701 10.1502 0 
29.7079 10.2339 0 
29.6296 10.0905 0 
29.5813 10 0 
29.6023 10.0485 0 
29.5716 10.0098 0 
29.6828 10.2339 0 
29.7086 10.2914 0 
29.2101 9.25 0 
29.562 10.0196 0 
29.6201 10.1502 0 
29.6578 10.2339 0 
29.4428 9.79545 0 
29.5999 10.1203 0 
29.6849 10.2914 0 
29.6283 10.1921 0 
29.5477 10.0341 0 
29.3259 9.59091 0 
29.5608 10.0905 0 
29.5335 10.0485 0 
29.6221 10.2339 0 
29.6503 10.2914 0 
29.5702 10.1502 0 
29.4881 10 0 
29.5128 10.0695 0 
29.6511 10.3489 0 
29.5866 10.2339 0 
29.6392 10.3489 0 
29.4689 10.0196 0 
29.6002 10.2914 0 
29.6273 10.3489 0 
29.4921 10.0905 0 
29.61 10.3489 0 
29.5286 10.1921 0 
29.5016 10.1502 0 
29.5368 10.2339 0 
29.5926 10.3489 0 
29.4405 10.0485 0 
29.2199 9.59091 0 
29.4626 10.1203 0 
29.3949 10 0 
28.9 8.90909 0 
29.5676 10.3489 0 
29.5291 10.2914 0 
29.3853 10.0098 0 
28.6923 8.45455 0 
29.487 10.2339 0 
29.5426 10.3489 0 
29.3758 10.0196 0 
29.5734 10.4266 0 
29.4331 10.1502 0 
29.3993 10.0905 0 
28.5 8 0 
29.3617 10.0341 0 
29.5496 10.4266 0 
29.5071 10.3489 0 
29.2327 9.79545 0 
29.3475 10.0485 0 
29.1136 9.59091 0 
29.4187 10.2339 0 
29.5148 10.4266 0 
29.4716 10.3489 0 
29.3918 10.1921 0 
29.3271 10.0695 0 
29.4298 10.2914 0 
29.2714 10 0 
29.3406 10.1502 0 
28.9208 9.25 0 
29.3066 10.0905 0 
29.4648 10.4266 0 
29.422 10.3489 0 
29.4958 10.5042 0 
29.2524 10.0196 0 
27.75 6 0 
29.3504 10.2339 0 
29.4837 10.5042 0 
29.4718 10.5042 0 
29.2774 10.1203 0 
29.4543 10.5042 0 
29.3724 10.3489 0 
29.2244 10.0485 0 
29.4369 10.5042 0 
29.3938 10.4266 0 
28.9853 9.59091 0 
29.2481 10.1502 0 
28.6766 8.90909 0 
29.4119 10.5042 0 
29.2934 10.2914 0 
27.225 4 0 
29.148 10 0 
29.2582 10.2339 0 
29.1837 10.0905 0 
29.3869 10.5042 0 
29.1385 10.0098 0 
29.3044 10.3489 0 
29.1291 10.0196 0 
29.2072 10.1921 0 
29.3514 10.5042 0 
29.1152 10.0341 0 
29.3929 10.6071 0 
29.2949 10.4266 0 
29.1013 10.0485 0 
29.3686 10.6071 0 
29.316 10.5042 0 
29.2364 10.3489 0 
28.9623 9.79545 0 
29.1257 10.1502 0 
29.1662 10.2339 0 
29.0811 10.0695 0 
28.8566 9.59091 0 
29.3336 10.6071 0 
29.2666 10.5042 0 
29.0609 10.0905 0 
28.9875 10 0 
29.2835 10.6071 0 
29.1448 10.3489 0 
29.0321 10.1203 0 
29.2173 10.5042 0 
29.1098 10.2914 0 
28.125 8 0 
28.9688 10.0196 0 
29.1594 10.4266 0 
28.611 9.25 0 
29.29 10.71 0 
28.4486 8.90909 0 
29.0443 10.2339 0 
29.0033 10.1502 0 
29.2777 10.71 0 
28.9413 10.0485 0 
29.2128 10.6071 0 
29.2655 10.71 0 
29.1497 10.5042 0 
29.2478 10.71 0 
28.7003 9.59091 0 
29.0533 10.3489 0 
29.2303 10.71 0 
28.9629 10.1921 0 
28.9013 10.0905 0 
29.2051 10.71 0 
29.0822 10.5042 0 
29.1801 10.71 0 
28.827 10 0 
29.1144 10.6071 0 
28.8177 10.0098 0 
28.9225 10.2339 0 
28.8085 10.0196 0 
29.1447 10.71 0 
28.7949 10.0341 0 
28.8443 10.1502 0 
28.977 10.4266 0 
28.9322 10.3489 0 
29.1094 10.71 0 
28.7813 10.0485 0 
28.9912 10.5042 0 
29.1562 10.8438 0 
28.5436 9.59091 0 
28.7615 10.0695 0 
28.8669 10.2914 0 
29.1313 10.8438 0 
28.6184 9.79545 0 
29.0602 10.71 0 
28.2207 8.90909 0 
28.7418 10.0905 0 
28.0378 8.45455 0 
28.9798 10.6071 0 
29.0958 10.8438 0 
29.0112 10.71 0 
28.9005 10.5042 0 
28.7136 10.1203 0 
28.7644 10.2339 0 
28.8113 10.3489 0 
29.0454 10.8438 0 
28.6223 10 0 
28.6854 10.1502 0 
28.2746 9.25 0 
28.9441 10.71 0 
28.6042 10.0196 0 
27.75 8 0 
28.9747 10.8438 0 
28.6459 10.1921 0 
28.5773 10.0485 0 
29.0225 10.9775 0 
28.3532 9.59091 0 
28.7804 10.5042 0 
28.736 10.4266 0 
28.8772 10.71 0 
29.0097 10.9775 0 
28.9971 10.9775 0 
28.799 10.6071 0 
28.9791 10.9775 0 
28.5384 10.0905 0 
28.6064 10.2339 0 
28.6543 10.3489 0 
28.9611 10.9775 0 
28.8769 10.8438 0 
27.9867 8.90909 0 
26.25 0 0 
28.9358 10.9775 0 
28.7871 10.71 0 
28.9106 10.9775 0 
28.6607 10.5042 0 
28.4177 10 0 
26.55 4 0 
28.552 10.2914 0 
28.483 10.1502 0 
28.4087 10.0098 0 
28.8751 10.9775 0 
28.3998 10.0196 0 
28.3866 10.0341 0 
28.8399 10.9775 0 
28.6974 10.71 0 
28.3735 10.0485 0 
28.1625 9.59091 0 
28.7436 10.8438 0 
28.4976 10.3489 0 
28.3543 10.0695 0 
28.791 10.9775 0 
28.4052 10.2339 0 
28.3352 10.0905 0 
28.8519 11.1481 0 
28.1869 9.79545 0 
28.5607 10.6071 0 
28.5053 10.5042 0 
28.7423 10.9775 0 
28.8258 11.1481 0 
28.308 10.1203 0 
28.5787 10.71 0 
27.904 9.25 0 
28.7893 11.1481 0 
28.424 10.4266 0 
27.7528 8.90909 0 
28.2807 10.1502 0 
28.6758 10.9775 0 
27.375 8 0 
28.7383 11.1481 0 
28.1619 10 0 
28.5649 10.8438 0 
28.2425 10.1921 0 
28.6096 10.9775 0 
28.1444 10.0196 0 
28.298 10.3489 0 
28.4605 10.71 0 
26.7 6 0 
27.9315 9.59091 0 
28.3503 10.5042 0 
28.6676 11.1481 0 
28.1187 10.0485 0 
28.2042 10.2339 0 
28.5207 10.9775 0 
28.0813 10.0905 0 
28.6814 11.3186 0 
27.3818 8.45455 0 
28.6679 11.3186 0 
28.1516 10.2914 0 
28.5703 11.1481 0 
28.6544 11.3186 0 
28.6358 11.3186 0 
27.5109 8.90909 0 
28.3072 10.71 0 
28.6173 11.3186 0 
28.2524 10.6071 0 
28.4322 10.9775 0 
28.028 10.1502 0 
28.5915 11.3186 0 
28.0989 10.3489 0 
28.33 10.8438 0 
28.5658 11.3186 0 
28.153 10.5042 0 
27.9061 10 0 
27.8975 10.0098 0 
28.5303 11.3186 0 
28.4384 11.1481 0 
27.7002 9.59091 0 
27.889 10.0196 0 
27.8765 10.0341 0 
28.4949 11.3186 0 
28.3154 10.9775 0 
27.9532 10.2339 0 
27.8639 10.0485 0 
28.0276 10.4266 0 
28.1544 10.71 0 
27.8457 10.0695 0 
27.4909 9.25 0 
28.4463 11.3186 0 
27 8 0 
27.8275 10.0905 0 
28.3979 11.3186 0 
27.8015 10.1203 0 
27.6542 9.79545 0 
25.675 2 0 
28.1991 10.9775 0 
27.2691 8.90909 0 
27.9563 10.5042 0 
28.4682 11.5318 0 
28.2625 11.1481 0 
27.7755 10.1502 0 
28.3322 11.3186 0 
27.8502 10.3489 0 
28.4401 11.5318 0 
25.875 4 0 
27.7391 10.1921 0 
28.4019 11.5318 0 
28.0268 10.8438 0 
28.2668 11.3186 0 
27.9602 10.71 0 
28.3498 11.5318 0 
27.4223 9.59091 0 
27.7026 10.2339 0 
27.5927 10 0 
28.0486 10.9775 0 
27.8616 10.6071 0 
27.5762 10.0196 0 
28.1794 11.3186 0 
28.2786 11.5318 0 
27.5519 10.0485 0 
27.6524 10.2914 0 
28.0319 11.1481 0 
27.7108 10.5042 0 
27.5167 10.0905 0 
27.0169 8.90909 0 
28.0924 11.3186 0 
27.6021 10.3489 0 
27.8988 10.9775 0 
28.1818 11.5318 0 
27.7667 10.71 0 
26.625 8 0 
28.255 11.745 0 
27.4664 10.1502 0 
28.2402 11.745 0 
28.2256 11.745 0 
28.2059 11.745 0 
27.978 11.3186 0 
26.7234 8.45455 0 
27.0259 9.25 0 
27.5342 10.4266 0 
28.1863 11.745 0 
27.1442 9.59091 0 
28.0516 11.5318 0 
28.1598 11.745 0 
27.3959 10.2339 0 
28.1334 11.745 0 
27.2793 10 0 
27.2714 10.0098 0 
27.2635 10.0196 0 
27.7086 10.9775 0 
27.6431 10.8438 0 
28.0975 11.745 0 
27.8643 11.3186 0 
27.4661 10.5042 0 
27.2518 10.0341 0 
27.2401 10.0485 0 
28.0617 11.745 0 
26.7648 8.90909 0 
27.5255 10.71 0 
27.7353 11.1481 0 
27.2231 10.0695 0 
28.0133 11.745 0 
27.2061 10.0905 0 
27.8791 11.5318 0 
27.2986 10.3489 0 
27.1818 10.1203 0 
27.9651 11.745 0 
27.3758 10.6071 0 
27.0077 9.79545 0 
27.7174 11.3186 0 
27.1576 10.1502 0 
25 0 0 
27.5193 10.9775 0 
27.9003 11.745 0 
27.1236 10.1921 0 
26.25 8 0 
27.9939 12.0061 0 
25.65 6 0 
27.8359 11.745 0 
26.8136 9.59091 0 
27.0896 10.2339 0 
27.9626 12.0061 0 
27.2853 10.71 0 
25.2 4 0 
27.5713 11.3186 0 
27.9218 12.0061 0 
26.4998 8.90909 0 
27.167 10.5042 0 
27.6541 11.5318 0 
27.0427 10.2914 0 
27.7503 11.745 0 
26.9033 10 0 
27.8677 12.0061 0 
26.8882 10.0196 0 
26.8659 10.0485 0 
26.9958 10.3489 0 
27.2836 10.9775 0 
27.6652 11.745 0 
27.3609 11.1481 0 
27.7955 12.0061 0 
26.499 9.25 0 
[...]
POINT_DATA 1909
SCALARS phi float 1
LOOKUP_TABLE default
VECTORS Displacement float
0 0 0
0 0 0
0 -0.00593632 0
0 0 0
0 -0.00820763 0
0 0 0
0 -0.00711009 0
0 0 0
0 0 0
0 -0.00298228 0
0.0168421 -0.00514392 0
0 0 0
0 0.00391481 0
0.0326583 -0.00305984 0
0 0 0
0.0228606 -0.00503656 0
0 0.0127622 0
0 0 0
0.0433629 0.0072401 0
0.0294779 -0.00510891 0
0 0 0
0.0490721 0.0235933 0
0 0 0
0.0365561 -0.0054858 0
0 0 0
0.0692664 -0.00337873 0
0.0437043 -0.00617223 0
0.0816058 0.000833839 0
0 0 0
0.0743126 -0.00373098 0
0.0904444 0.00650454 0
0.0961429 0.0132863 0
0.0792725 -0.00417217 0
0.0995686 0.0204322 0
0 0 0
0.0842078 -0.00487855 0
0.102266 0.0279269 0
0.0504669 -0.00712507 0
0.0890067 -0.00568879 0
0.104818 0.0367689 0
0 0 0
0.0935771 -0.00666912 0
0.119571 0.00343828 0
0.0979198 -0.00774936 0
0.130972 0.0155978 0
0.0564181 -0.0082893 0
0 0 0
0.12965 -0.00052448 0
0.135874 0.0321183 0
0.101942 -0.00895229 0
0.136836 0.0557261 0
0.105644 -0.0102446 0
0 0 0
0.138168 -0.00466845 0
0.108983 -0.011627 0
0.0612048 -0.0096199 0
0.145363 -0.00917553 0
0.111933 -0.0130923 0
0 0 0
0.170106 0.00165399 0
0.175016 0.00549323 0
0.114503 -0.0146203 0
0.173644 -0.00140062 0
0.179821 0.0103536 0
0.151201 -0.0140237 0
0.183436 0.0172818 0
0.182404 0.00734164 0
0.187164 0.0271456 0
0.187955 0.024817 0
0.176765 -0.00453549 0
0.186851 0.0119812 0
0.188069 0.0339613 0
0.188719 0.0228711 0
0.184729 0.00465039 0
0.188832 0.0316073 0
0.181583 -0.000951083 0
0.189471 0.0209114 0
0.18835 0.041738 0
0.18984 0.028875 0
0.188699 0.0418731 0
0.264947 0.0693743 0
0.190168 0.0191815 0
0.189097 0.041831 0
0.320386 0.0883334 0
0.26326 0.0683803 0
0.189714 0.0417189 0
0.318649 0.0873352 0
0.32393 0.0878938 0
0.316659 0.0861264 0
0.190384 0.0414651 0
0.313282 0.0844286 0
0.324052 0.0868873 0
0.260276 0.0663575 0
0.32233 0.0858837 0
0.191204 0.025912 0
0.190876 0.0174279 0
0.191375 0.0407723 0
0.323904 0.0860125 0
0.309853 0.082577 0
0.32378 0.0852152 0
0.324454 0.0857856 0
0.1924 0.0400313 0
0.318685 0.0831564 0
0.116638 -0.0162354 0
0.305037 0.0798148 0
0.323372 0.0842029 0
0.256271 0.0627054 0
0.324238 0.0843013 0
0.322805 0.0830904 0
0.32396 0.0845665 0
0.300416 0.0770528 0
0.0645429 -0.0110891 0
0.193797 0.038531 0
0.323898 0.0838415 0
0.191524 0.015816 0
0.186992 0.00214834 0
0 0 0
0.321577 0.0813431 0
0.323817 0.083097 0
0.312601 0.078771 0
0.189904 0.00789767 0
0.323783 0.082037 0
0.192993 0.0227544 0
0.294478 0.0729577 0
0.323671 0.0819298 0
0.195166 0.0370942 0
0.323332 0.0828878 0
0.319845 0.079403 0
0.323513 0.0807097 0
0.25139 0.0569858 0
0.323188 0.0812895 0
0.288817 0.0690405 0
0.322386 0.0783046 0
0.316958 0.0763276 0
0.323225 0.0788668 0
0.192216 0.0141248 0
0.322478 0.0810158 0
0.196901 0.0348088 0
0.303693 0.0718142 0
0.322396 0.0801755 0
0.322937 0.0787808 0
0.322895 0.0769782 0
0.322312 0.0793155 0
0.313556 0.0731711 0
0.179747 -0.00768852 0
0.281678 0.0636235 0
0.322177 0.0780278 0
0.322175 0.074292 0
0.198492 0.0326734 0
0.322035 0.0767247 0
0.318769 0.0725773 0
0.321255 0.0782457 0
0.322507 0.0750134 0
0.245409 0.0492068 0
0.195195 0.0193753 0
0.192857 0.0125202 0
0.308504 0.0686203 0
0.321821 0.0748229 0
0.275016 0.0586112 0
0.321095 0.0764695 0
0.321167 0.0715908 0
0.291468 0.0621898 0
0.321601 0.0729347 0
0.320843 0.0738378 0
0.200394 0.0298479 0
0.320005 0.0753709 0
0.30312 0.0641968 0
0.321601 0.0697001 0
0.319913 0.0744627 0
0.319216 0.0678693 0
0.321282 0.0702819 0
0.31982 0.0735603 0
0.189079 -0.000312189 0
0.266784 0.052215 0
0.311556 0.0645342 0
0.193601 0.0107992 0
0.319685 0.0722413 0
0.320455 0.070094 0
0.320969 0.067718 0
0.319549 0.0709398 0
0.316655 0.0641957 0
0.202011 0.0271998 0
0.295644 0.0583182 0
0.23813 0.0398521 0
0.319357 0.0690869 0
0.31831 0.0713878 0
0.192693 0.00406683 0
0.259378 0.0464438 0
0.32041 0.06429 0
0.319168 0.0672813 0
0.197728 0.0157181 0
0.319154 0.0626995 0
0.318143 0.0696115 0
0.319908 0.0650507 0
0.275818 0.0503611 0
0.194324 0.0091466 0
0.312357 0.0593394 0
0.288148 0.0527766 0
0.318902 0.0647934 0
0.317896 0.0670749 0
0.319717 0.0610358 0
0.203856 0.0241156 0
0.299491 0.0541501 0
0.316647 0.0674962 0
0.318642 0.0624077 0
0.316563 0.0666285 0
0.250572 0.0396276 0
0.317543 0.0635741 0
0.316479 0.0657751 0
0.307376 0.0546232 0
0.316359 0.0645442 0
0.319116 0.0586307 0
0.31824 0.0568511 0
0.318292 0.0592217 0
0.31624 0.063342 0
0.278253 0.0459041 0
0.195205 0.00732207 0
0.31313 0.0539348 0
0.20532 0.021193 0
0.191072 -0.00277476 0
0.316072 0.061647 0
0.317061 0.0589357 0
0.229772 0.0296696 0
0.186912 -0.00725389 0
0.317964 0.0562266 0
0.315908 0.0600064 0
0.243146 0.0336601 0
0.314588 0.0624932 0
0.316168 0.052839 0
0.299861 0.0486345 0
0.182362 -0.0109459 0
0.257349 0.0371938 0
0.314436 0.0608717 0
0.315683 0.0577554 0
0.200441 0.0116329 0
0.26879 0.0395684 0
0.19611 0.00557649 0
0.317474 0.0523518 0
0.314218 0.0585915 0
0.315467 0.055601 0
0.317256 0.050821 0
0.281741 0.0416854 0
0.316442 0.0530686 0
0.206933 0.0179524 0
0.312294 0.0477931 0
0.195307 0.000215455 0
0.291756 0.0428746 0
0.313913 0.0554727 0
0.315173 0.0527326 0
0.312551 0.057767 0
0.234952 0.0270082 0
0.15561 -0.019145 0
0.316922 0.0487498 0
0.312484 0.0569984 0
0.312417 0.0562443 0
0.301144 0.043204 0
0.312322 0.0551628 0
0.31489 0.0500148 0
0.257211 0.0321316 0
0.312228 0.0541072 0
0.313499 0.0513498 0
0.197205 0.00357569 0
0.307433 0.0428832 0
0.19292 -0.00524427 0
0.312094 0.0526241 0
0.315677 0.0459385 0
0.118378 -0.0178835 0
0.208174 0.0148545 0
0.315677 0.0442321 0
0.280542 0.0358327 0
0.311963 0.0511864 0
0.221509 0.0193766 0
0.31452 0.0464845 0
0.228757 0.0214183 0
0.311826 0.0415474 0
0.311778 0.0492112 0
0.238401 0.023792 0
0.310148 0.0519832 0
0.312957 0.046085 0
0.247081 0.025602 0
0.310026 0.050567 0
0.311597 0.0473105 0
0.314173 0.0431731 0
0.203132 0.00683076 0
0.299571 0.0368069 0
0.3138 0.0399469 0
0.258962 0.0277632 0
0.198326 0.00164373 0
0.30985 0.0485878 0
0.311348 0.0447613 0
0.269252 0.0292383 0
0.209486 0.0113235 0
0.309603 0.045878 0
0.3137 0.0389592 0
0.281166 0.0304104 0
0.311105 0.0423269 0
0.314062 0.0374925 0
0.184743 -0.0141881 0
0.222697 0.0153498 0
0.312276 0.0395866 0
0.197746 -0.00383682 0
0.307745 0.0465794 0
0.19462 -0.00779021 0
0.309993 0.0346923 0
0.290488 0.0308712 0
0.307695 0.0459129 0
0.23631 0.01832 0
0.309263 0.0422649 0
0.307646 0.045258 0
0.310777 0.0391463 0
0.307576 0.0443246 0
0.199662 -0.000621638 0
0.313186 0.035052 0
0.307506 0.0434104 0
0.299209 0.03049 0
0.25556 0.0215513 0
0.307405 0.0421278 0
0.310459 0.0361321 0
0.307305 0.0408776 0
0.210512 0.00794203 0
0.308804 0.0375928 0
0.21555 0.00953895 0
0.304883 0.029608 0
0.218937 0.0104197 0
0.307161 0.0391563 0
0.223583 0.0114641 0
0.277643 0.0237936 0
0.311472 0.0318367 0
0.311988 0.0302443 0
0.307019 0.0374892 0
0.22849 0.0124584 0
0.31005 0.0322975 0
0.304891 0.0401076 0
0.200979 -0.0028375 0
0.236167 0.013865 0
0.308659 0.0277646 0
0.304799 0.0388656 0
0.20563 0.00101232 0
0.306817 0.0352446 0
0.196188 -0.0103318 0
0.243841 0.0150343 0
0.191156 -0.0136844 0
0.308203 0.0317522 0
0.304668 0.0371421 0
0.306616 0.0330886 0
0.309668 0.0287068 0
0.254618 0.0163776 0
0.296187 0.023547 0
0.310091 0.0257559 0
0.304483 0.0347843 0
0.211533 0.00394932 0
0.264461 0.0172209 0
0.200045 -0.00816679 0
0.306341 0.0302587 0
0.215998 0.00508775 0
0.186747 -0.0174881 0
0.304225 0.0316316 0
0.276203 0.0177065 0
0.221974 0.00616398 0
0.302106 0.0340521 0
0.202504 -0.00547082 0
0.309181 0.0242582 0
0.30987 0.0229287 0
0.306069 0.0275694 0
0.302068 0.0334609 0
0.30203 0.0328795 0
0.307454 0.024732 0
0.301976 0.0320622 0
0.232531 0.00772624 0
0.285616 0.0176121 0
0.30605 0.020455 0
0.301922 0.0312607 0
0.303875 0.0275385 0
0.19761 -0.0129545 0
0 0 0
0.301845 0.0301452 0
0.305713 0.0241449 0
0.301768 0.0290566 0
0.308655 0.0201881 0
0.212361 0.000114436 0
0.119659 -0.0196375 0
0.294574 0.0166961 0
0.24947 0.00960275 0
0.213593 0.000382189 0
0.301658 0.0275647 0
0.214753 0.000594523 0
0.216424 0.000856929 0
0.301549 0.0261186 0
0.305373 0.0209355 0
0.21832 0.00114768 0
0.20394 -0.00807217 0
0.303415 0.0224143 0
0.300378 0.0154108 0
0.221523 0.00161985 0
0.301399 0.0241777 0
0.271046 0.0107602 0
0.225213 0.00213258 0
0.298781 0.0269089 0
0.20792 -0.00596453 0
0.306643 0.0166959 0
0.307422 0.0153634 0
0.301251 0.0223145 0
0.298718 0.0258021 0
0.231185 0.00286971 0
0.304965 0.016993 0
0.202247 -0.0128185 0
0.298629 0.0242978 0
0.304165 0.0132249 0
0.198886 -0.0155737 0
0.237709 0.00352755 0
0.301054 0.019877 0
0.188479 -0.0207811 0
0.298505 0.022269 0
0.213074 -0.00444925 0
0.302845 0.0162724 0
0.247295 0.00424565 0
0.300866 0.0175663 0
0.214313 -0.0043559 0
0.29051 0.00967449 0
0.304625 0.013361 0
0.158537 -0.0244825 0
0.205534 -0.0111773 0
0.305471 0.0109614 0
0.298336 0.0195832 0
0.216352 -0.00424903 0
0.256665 0.00458823 0
0.300626 0.01463 0
0.220262 -0.00400552 0
0.295509 0.0202738 0
0.194351 -0.0201847 0
0.295484 0.0197507 0
0.268376 0.00452126 0
0.29811 0.0161238 0
0.295459 0.0192374 0
0.295426 0.0185323 0
0.200018 -0.0182821 0
0.304174 0.00899152 0
0.295393 0.0178424 0
0.305037 0.00791419 0
0.300407 0.011883 0
0.227977 -0.00353232 0
0.295348 0.016898 0
0.278231 0.00393734 0
0.302181 0.00923 0
0.295304 0.0159784 0
0.301104 0.00584204 0
0.213684 -0.00883473 0
0.21404 -0.00887115 0
0.295243 0.0147329 0
0.297822 0.0118141 0
0.20696 -0.0142594 0
0.214404 -0.00890821 0
0.214983 -0.00895544 0
0.295184 0.0135281 0
0.300135 0.00847646 0
0.242017 -0.00291964 0
0.215605 -0.0089976 0
0.287995 0.00251079 0
0.30363 0.0049477 0
0.216655 -0.00903199 0
0.20432 -0.0178745 0
0.295105 0.0119224 0
0.189846 -0.024091 0
0.217846 -0.0090497 0
0.29503 0.010381 0
0.219899 -0.0090274 0
0.210212 -0.0140302 0
0.0661914 -0.0126754 0
0.299869 0.00526721 0
0.200997 -0.020978 0
0.294495 0.000786612 0
0.291863 0.0127823 0
0.297467 0.00661527 0
0.222386 -0.00895856 0
0.294932 0.00836647 0
0.262459 -0.00290677 0
0.291829 0.0118095 0
0.120528 -0.021386 0
0.226635 -0.00881963 0
0.291781 0.0105283 0
0.301402 0.00118321 0
0.294839 0.00644243 0
0.302323 5.56787e-05 0
0.291715 0.00883686 0
0.20842 -0.0179332 0
0.231698 -0.00867665 0
0.214244 -0.0139301 0
0.29954 0.00130506 0
0.298774 -0.00187123 0
0.21475 -0.0140747 0
0.294719 0.00397242 0
0.291628 0.00662267 0
0.215554 -0.0142852 0
0.239575 -0.00860447 0
0.29702 0.000392235 0
0.283133 -0.00496878 0
0.216889 -0.0145828 0
0.201861 -0.0237675 0
0.294595 0.00159562 0
0.247981 -0.00880021 0
0.299162 -0.00249918 0
0.291512 0.00376805 0
0.300189 -0.00457247 0
0.190938 -0.0274144 0
0.288101 0.0058739 0
0.219361 -0.014974 0
0.288095 0.00541597 0
0.288089 0.00496599 0
0.288082 0.00436715 0
0.294429 -0.0014291 0
0.196513 -0.0267204 0
0.206126 -0.0234724 0
0.259096 -0.00951726 0
0.288075 0.00377959 0
0.209636 -0.0215812 0
0.291361 0.000141617 0
0.288065 0.0029917 0
0.224477 -0.0154533 0
0.288055 0.00222014 0
0.214763 -0.0188429 0
0.214956 -0.0189326 0
0.215162 -0.0190193 0
0.298565 -0.00717783 0
0.299539 -0.00813161 0
0.288041 0.00118724 0
0.294236 -0.00437155 0
0.269124 -0.0107424 0
0.215453 -0.0191537 0
0.215751 -0.0192879 0
0.288027 0.000176927 0
0.202562 -0.0265449 0
0.295075 -0.00994366 0
0.296349 -0.00712725 0
0.2162 -0.0194808 0
0.288007 -0.0011669 0
0.216656 -0.0196766 0
0.291152 -0.00444364 0
0.234925 -0.0161499 0
0.217364 -0.019945 0
0.287983 -0.00248299 0
0.279605 -0.01292 0
0.212553 -0.0231553 0
0.293952 -0.00808517 0
0.218114 -0.0202158 0
0 0 0
0.297855 -0.0116472 0
0.287949 -0.00422085 0
0.219374 -0.0205641 0
0.191694 -0.0307363 0
0.283938 -0.00178791 0
0.159962 -0.0299953 0
0.287907 -0.00592901 0
0.210718 -0.0258814 0
0.22087 -0.0208971 0
0.28393 -0.00268276 0
0.286929 -0.0153483 0
0.12092 -0.0232721 0
0.293625 -0.0116924 0
0.283918 -0.00382886 0
0.203144 -0.0294454 0
0.252602 -0.0176383 0
0.290818 -0.0102108 0
0.223526 -0.0213146 0
0.287831 -0.00816231 0
0.215583 -0.0243724 0
0.283901 -0.00531962 0
0.215823 -0.0245882 0
0.216245 -0.0248904 0
0.226899 -0.021718 0
0.296203 -0.0170346 0
0.287741 -0.0103583 0
0.295242 -0.0160771 0
0.283876 -0.00727334 0
0.207474 -0.0297385 0
0.216899 -0.0253266 0
0.291936 -0.0187712 0
0.293139 -0.0161386 0
0.232508 -0.0223469 0
0.283832 -0.00983571 0
0.287603 -0.0131922 0
0.217884 -0.0259626 0
0.273511 -0.0211308 0
0.203552 -0.0323369 0
0.197723 -0.0332519 0
0.21147 -0.0301428 0
0.290249 -0.0173201 0
0.239161 -0.023157 0
0.192187 -0.0340652 0
0.279678 -0.00910207 0
0.219444 -0.0268881 0
0.287442 -0.0159663 0
0.279681 -0.00955435 0
0.283751 -0.0131785 0
0.293597 -0.0221131 0
0.279685 -0.0100019 0
0.29258 -0.0204297 0
0.279689 -0.0105745 0
0.279692 -0.0111416 0
0.279694 -0.0118816 0
0.21615 -0.0297594 0
0.248601 -0.0246381 0
0.216285 -0.0298674 0
0.216418 -0.0299761 0
0.279694 -0.0126146 0
0.216604 -0.0301382 0
0.222425 -0.0282108 0
0.287197 -0.0194716 0
0.21679 -0.0303014 0
0.279691 -0.013581 0
0.217053 -0.0305406 0
0.283602 -0.0174865 0
0.279686 -0.0145382 0
0.217315 -0.0307823 0
0.217682 -0.0311311 0
0.203815 -0.0353847 0
0.258029 -0.0266314 0
0.279673 -0.0158028 0
0.292785 -0.0263549 0
0.291742 -0.0256095 0
0.218048 -0.0314845 0
0.286913 -0.0228842 0
0.279656 -0.0170543 0
0.287156 -0.0276264 0
0.214134 -0.033536 0
0.218555 -0.0319858 0
0.289272 -0.0258305 0
0.228952 -0.0301555 0
0.279627 -0.0187007 0
0.211983 -0.0350695 0
0.219057 -0.0324968 0
0.19238 -0.0373866 0
0.283327 -0.0229243 0
0.120884 -0.0250959 0
0.27959 -0.0203257 0
0.268645 -0.0297461 0
0.208136 -0.03677 0
0.219816 -0.0331905 0
0.286493 -0.0270965 0
0.274673 -0.0175547 0
0.290765 -0.0305511 0
0.27953 -0.0224413 0
0.274679 -0.0185074 0
0.22063 -0.0338909 0
0.203897 -0.0384221 0
0.274682 -0.0196874 0
0.216606 -0.0358822 0
0.216816 -0.0361027 0
0.279457 -0.0245217 0
0.276706 -0.0331231 0
0.241993 -0.0332886 0
0.274681 -0.0211841 0
0.217129 -0.036431 0
0.222083 -0.0347899 0
0.28601 -0.0311778 0
0.217581 -0.0369137 0
0.198024 -0.0397916 0
0.282838 -0.0296242 0
0.274671 -0.023109 0
0.279341 -0.0271888 0
0.223849 -0.0357041 0
0.218214 -0.0376154 0
0.159889 -0.0356563 0
0.288555 -0.0363325 0
0.212082 -0.0399463 0
0.274643 -0.025596 0
0.287687 -0.0357247 0
0.192325 -0.0407145 0
0.279203 -0.0298021 0
0.282771 -0.0375544 0
0.219071 -0.0386268 0
0.227074 -0.0369466 0
0.2038 -0.0416443 0
0.285314 -0.0360898 0
0.274579 -0.0287963 0
0 0 0
0.278991 -0.033092 0
0.261082 -0.0385319 0
0.269558 -0.0258801 0
0.22023 -0.0400658 0
0.231234 -0.0383353 0
0.269561 -0.0263892 0
0.269564 -0.0268947 0
0.0659415 -0.0143333 0
0.216494 -0.0419461 0
0.269567 -0.0275119 0
0.281996 -0.0376633 0
0.216599 -0.0420628 0
0.216704 -0.04218 0
0.26957 -0.0281246 0
0.285048 -0.0416898 0
0.216853 -0.0423535 0
0.274449 -0.0328714 0
0.278743 -0.036302 0
0.269571 -0.0288919 0
0.217001 -0.042528 0
0.284515 -0.0408136 0
0.21721 -0.0427828 0
0.26957 -0.029653 0
0.217416 -0.0430395 0
0.237823 -0.0405073 0
0.269567 -0.0306234 0
0.22198 -0.0421097 0
0.217705 -0.0434092 0
0.20787 -0.0446233 0
0.12035 -0.0270944 0
0.269561 -0.0315848 0
0.203517 -0.0448513 0
0.217988 -0.0437828 0
0.191999 -0.0440332 0
0.26955 -0.0328223 0
0.218375 -0.0443133 0
0.278375 -0.0402618 0
0.211764 -0.0454945 0
0.214032 -0.045286 0
0.269534 -0.0340466 0
0.218752 -0.0448511 0
0.274205 -0.0379808 0
0.245446 -0.0432164 0
0.269506 -0.0356247 0
0.28434 -0.0467282 0
0.219258 -0.0456019 0
0.283363 -0.0463846 0
0.197444 -0.0463526 0
0.225156 -0.0451342 0
0.276427 -0.0468474 0
0.269471 -0.0371831 0
0.219743 -0.046366 0
0.277948 -0.0441073 0
0.280591 -0.0470333 0
0.269415 -0.0391817 0
0.220376 -0.0474091 0
0.254802 -0.0473137 0
0.203016 -0.0482669 0
0.263444 -0.0355318 0
0.273766 -0.0442614 0
0.215822 -0.0487505 0
0.269345 -0.041151 0
0.263449 -0.036629 0
0.215988 -0.0489838 0
0.220984 -0.0484719 0
0.216234 -0.049331 0
0.191437 -0.0473516 0
0.263451 -0.0379253 0
0.277334 -0.0487421 0
0.282041 -0.0516844 0
0.216587 -0.0498399 0
0.269237 -0.0436505 0
0.263447 -0.0394992 0
0.221776 -0.0498968 0
0.232291 -0.0498447 0
0.217077 -0.0505759 0
0.210968 -0.0509664 0
0.262986 -0.0518878 0
0.263432 -0.0414492 0
0.269109 -0.0461063 0
0.217741 -0.0516261 0
0.222542 -0.0513589 0
0.276631 -0.0532273 0
0.263397 -0.043894 0
0.202323 -0.0516598 0
0.273013 -0.0518038 0
0.268914 -0.0491784 0
0.218611 -0.0531065 0
0.119381 -0.0289447 0
0.158333 -0.0414194 0
0.278825 -0.0576145 0
0.223783 -0.0533264 0
0.206389 -0.053316 0
0.263327 -0.0469714 0
0.278375 -0.0576547 0
0.270048 -0.0577177 0
0.19063 -0.0506515 0
0.268686 -0.052186 0
0.219717 -0.0551721 0
0.275643 -0.0585031 0
0.21458 -0.0553916 0
0.257083 -0.0450875 0
0.214659 -0.0555113 0
0.214739 -0.0556313 0
0.22542 -0.0553631 0
0.196023 -0.0529242 0
0.257086 -0.0456817 0
0.246224 -0.0570762 0
0.214853 -0.0558085 0
0.263193 -0.0508317 0
0.214967 -0.0559864 0
0.257089 -0.0462728 0
0.215129 -0.0562452 0
0.257091 -0.0469604 0
0.21529 -0.0565054 0
0.26835 -0.0558827 0
0.257092 -0.047644 0
0.215515 -0.0568786 0
0.257091 -0.0484613 0
0.215737 -0.0572544 0
0.201355 -0.0552779 0
0.257088 -0.0492736 0
0.209583 -0.0570466 0
0.273375 -0.0630314 0
0.216042 -0.057786 0
0.27177 -0.060636 0
0.257081 -0.050267 0
0.221038 -0.0580494 0
0.216341 -0.058323 0
0.228789 -0.0580876 0
0.262951 -0.0556259 0
0.257072 -0.0512534 0
0.267961 -0.0594875 0
0.274515 -0.0635801 0
0.211613 -0.0582271 0
0 0 0
0.216739 -0.0590727 0
0.257056 -0.0524793 0
0.189598 -0.0539397 0
0.217126 -0.0598333 0
0.257035 -0.0536953 0
0.257002 -0.0552196 0
0.217625 -0.0608829 0
0.233264 -0.0612551 0
0.267407 -0.0638323 0
0.256961 -0.0567293 0
0.262531 -0.0614908 0
0.218097 -0.0619558 0
0.222523 -0.0620586 0
0.273484 -0.069172 0
0.200193 -0.0588628 0
0.256899 -0.0586248 0
0.272978 -0.0694637 0
0.261831 -0.0673889 0
0.117886 -0.0309913 0
0.218677 -0.0634193 0
0.212579 -0.0626803 0
0.256824 -0.0604983 0
0.212718 -0.0629215 0
0.266774 -0.0680512 0
0.21292 -0.0632795 0
0.249522 -0.0560001 0
0.239736 -0.0658857 0
0.269809 -0.0707129 0
0.213208 -0.0638032 0
0.219185 -0.0649282 0
0.256712 -0.06284 0
0.249526 -0.0573018 0
0.207693 -0.0630048 0
0.188349 -0.0571947 0
0.213605 -0.0645589 0
0.249525 -0.0587727 0
0.193797 -0.0594838 0
0.261827 -0.0685292 0
0.203404 -0.062786 0
0.25658 -0.0651485 0
0.214135 -0.0656351 0
0.219783 -0.0669368 0
0.249515 -0.06048 0
0.271211 -0.0749723 0
0.225184 -0.0679046 0
0.265902 -0.0730231 0
0.249491 -0.0625084 0
0.214813 -0.0671498 0
0.1987 -0.0626747 0
0.246665 -0.0713649 0
0.256387 -0.068006 0
0.220249 -0.0689992 0
0.155326 -0.0471817 0
0.249443 -0.0649615 0
0.256163 -0.0708146 0
0.215626 -0.069258 0
0.0636761 -0.0159584 0
0.264923 -0.0778318 0
0.249357 -0.0679604 0
0.186887 -0.0604226 0
0.220713 -0.0716666 0
0.26069 -0.0767856 0
0.255842 -0.0742429 0
0.266307 -0.0805484 0
0.209971 -0.0697403 0
0.210034 -0.0698627 0
0.210097 -0.0699854 0
0.210189 -0.0701666 0
0.253304 -0.0785567 0
0.21028 -0.0703484 0
0.216522 -0.0721563 0
0.26682 -0.0817999 0
0.210411 -0.0706128 0
0.249206 -0.0716393 0
0.210541 -0.0708784 0
0.210723 -0.0712586 0
0.205077 -0.0694561 0
0.197016 -0.0664326 0
0.241613 -0.0669067 0
0.221117 -0.0743682 0
0.210901 -0.0716413 0
0.115983 -0.0327809 0
0.255475 -0.0776001 0
0.241615 -0.0676203 0
0.231817 -0.0767791 0
0.211145 -0.0721807 0
0.241617 -0.0683315 0
0.263574 -0.0833419 0
0.211381 -0.0727247 0
0.241616 -0.0691223 0
0.241614 -0.0699102 0
0.211694 -0.0734797 0
0.248951 -0.0761372 0
0.241608 -0.0708089 0
0.206505 -0.0719958 0
0.211993 -0.0742431 0
0.2416 -0.0717039 0
0.21742 -0.07608 0
0.254961 -0.0816278 0
0.190789 -0.0659966 0
0.241587 -0.0727495 0
0.185238 -0.063599 0
0.257442 -0.085485 0
0.221843 -0.0779269 0
0.212376 -0.0752862 0
0.241571 -0.07379 0
0.258916 -0.0862201 0
0.212734 -0.076343 0
0.241546 -0.0750303 0
0.262056 -0.0886786 0
0 0 0
0.241516 -0.0762635 0
0.248528 -0.0815844 0
0.254378 -0.085555 0
0.213164 -0.0777665 0
0.241473 -0.077755 0
0.194949 -0.0704 0
0.223046 -0.0816736 0
0.241421 -0.079236 0
0.213558 -0.0792099 0
0.198697 -0.0728541 0
0.218215 -0.0812969 0
0.241346 -0.0810421 0
0.206484 -0.07725 0
0.206603 -0.0774948 0
0.206774 -0.0778575 0
0.201961 -0.075705 0
0.253582 -0.090175 0
0.213997 -0.0811258 0
0.258972 -0.0932853 0
0.207015 -0.0783868 0
0.24126 -0.0828325 0
0.24342 -0.0891989 0