# vtk DataFile Version 3.0
File generated from DClib
ASCII

DATASET UNSTRUCTURED_GRID
POINTS 1909 float
50 0 0 
48.75 0 0 
50 1.66667 0 
47.5 0 0 
50 3.33333 0 
46.25 0 0 
50 5 0 
45 0 0 
43.75 0 0 
50 6.66667 0 
43 2 0 
42.5 0 0 
50 8.33333 0 
43 4.66667 0 
41.25 0 0 
41.075 2 0 
50 10 0 
40 0 0 
43 7.33333 0 
39.15 2 0 
38.75 0 0 
43 10 0 
37.5 0 0 
37.225 2 0 
36.25 0 0 
36 4 0 
35.3 2 0 
36 5 0 
35 0 0 
35.325 4 0 
36 6 0 
36 7 0 
34.65 4 0 
36 8 0 
33.75 0 0 
33.975 4 0 
36 9 0 
33.375 2 0 
33.3 4 0 
36 10 0 
32.5 0 0 
32.625 4 0 
33 6 0 
31.95 4 0 
33 7.45455 0 
31.45 2 0 
31.25 0 0 
31.95 6 0 
33 8.79545 0 
31.275 4 0 
33 10 0 
30.6 4 0 
30 0 0 
30.9 6 0 
29.925 4 0 
29.525 2 0 
29.85 6 0 
29.25 4 0 
28.75 0 0 
30 8 0 
30 8.45455 0 
28.575 4 0 
29.625 8 0 
30 8.90909 0 
28.8 6 0 
30 9.25 0 
29.782 8.90909 0 
30 9.59091 0 
29.9487 9.59091 0 
29.25 8 0 
29.7462 9.25 0 
30 9.79545 0 
29.897 9.59091 0 
29.564 8.90909 0 
29.9547 9.79545 0 
29.3462 8.45455 0 
29.84 9.59091 0 
30 10 0 
29.8975 9.79545 0 
29.9882 10 0 
29.9902 10.0098 0 
29.7827 9.59091 0 
29.9765 10 0 
29.9804 10.0196 0 
29.9667 10.0098 0 
29.9591 10 0 
29.9686 10.0196 0 
29.9659 10.0341 0 
29.9569 10.0196 0 
29.9418 10 0 
29.9395 10.0196 0 
29.9515 10.0485 0 
29.932 10.0098 0 
29.9424 10.0341 0 
29.8241 9.79545 0 
29.7181 9.59091 0 
29.9166 10 0 
29.9397 10.0485 0 
29.9222 10.0196 0 
29.9279 10.0485 0 
29.9305 10.0695 0 
29.8914 10 0 
29.9077 10.0341 0 
27.9 4 0 
29.897 10.0196 0 
29.9106 10.0485 0 
29.8817 10.0098 0 
29.907 10.0695 0 
29.8933 10.0485 0 
29.9095 10.0905 0 
29.8719 10.0196 0 
27.6 2 0 
29.8556 10 0 
29.8978 10.0905 0 
29.6531 9.59091 0 
29.3437 8.90909 0 
27.5 0 0 
29.8681 10.0485 0 
29.886 10.0905 0 
29.8574 10.0341 0 
29.4839 9.25 0 
29.8723 10.0695 0 
29.7289 9.79545 0 
29.836 10.0196 0 
29.8687 10.0905 0 
29.8197 10 0 
29.8797 10.1203 0 
29.843 10.0485 0 
29.8513 10.0905 0 
29.81 10.0098 0 
29.8561 10.1203 0 
29.8002 10.0196 0 
29.8221 10.0695 0 
29.8072 10.0485 0 
29.8262 10.0905 0 
29.5782 9.59091 0 
29.8498 10.1502 0 
29.7695 10 0 
29.7858 10.0341 0 
29.838 10.1502 0 
29.8215 10.1203 0 
29.8011 10.0905 0 
29.8262 10.1502 0 
29.7714 10.0485 0 
28.875 8 0 
29.75 10.0196 0 
29.8089 10.1502 0 
29.7654 10.0905 0 
29.7193 10 0 
29.7916 10.1502 0 
29.7505 10.0695 0 
29.8079 10.1921 0 
29.7713 10.1203 0 
29.7096 10.0098 0 
29.6047 9.79545 0 
29.503 9.59091 0 
29.7213 10.0485 0 
29.7665 10.1502 0 
29.6999 10.0196 0 
29.7844 10.1921 0 
29.7296 10.0905 0 
29.6856 10.0341 0 
29.7414 10.1502 0 
29.7497 10.1921 0 
29.6503 10 0 
29.7661 10.2339 0 
29.6712 10.0485 0 
29.6999 10.1203 0 
29.7543 10.2339 0 
29.6796 10.0905 0 
29.7057 10.1502 0 
29.7425 10.2339 0 
29.1235 8.90909 0 
29.6309 10.0196 0 
29.6504 10.0695 0 
29.4146 9.59091 0 
29.7252 10.2339 0 
29.6996 10.1921 0 
29.6701 10.1502 0 
29.7079 10.2339 0 
29.6296 10.0905 0 
29.5813 10 0 
29.6023 10.0485 0 
29.5716 10.0098 0 
29.6828 10.2339 0 
29.7086 10.2914 0 
29.2101 9.25 0 
29.562 10.0196 0 
29.6201 10.1502 0 
29.6578 10.2339 0 
29.4428 9.79545 0 
29.5999 10.1203 0 
29.6849 10.2914 0 
29.6283 10.1921 0 
29.5477 10.0341 0 
29.3259 9.59091 0 
29.5608 10.0905 0 
29.5335 10.0485 0 
29.6221 10.2339 0 
29.6503 10.2914 0 
29.5702 10.1502 0 
29.4881 10 0 
29.5128 10.0695 0 
29.6511 10.3489 0 
29.5866 10.2339 0 
29.6392 10.3489 0 
29.4689 10.0196 0 
29.6002 10.2914 0 
29.6273 10.3489 0 
29.4921 10.0905 0 
29.61 10.3489 0 
29.5286 10.1921 0 
29.5016 10.1502 0 
29.5368 10.2339 0 
29.5926 10.3489 0 
29.4405 10.0485 0 
29.2199 9.59091 0 
29.4626 10.1203 0 
29.3949 10 0 
28.9 8.90909 0 
29.5676 10.3489 0 
29.5291 10.2914 0 
29.3853 10.0098 0 
28.6923 8.45455 0 
29.487 10.2339 0 
29.5426 10.3489 0 
29.3758 10.0196 0 
29.5734 10.4266 0 
29.4331 10.1502 0 
29.3993 10.0905 0 
28.5 8 0 
29.3617 10.0341 0 
29.5496 10.4266 0 
29.5071 10.3489 0 
29.2327 9.79545 0 
29.3475 10.0485 0 
29.1136 9.59091 0 
29.4187 10.2339 0 
29.5148 10.4266 0 
29.4716 10.3489 0 
29.3918 10.1921 0 
29.3271 10.0695 0 
29.4298 10.2914 0 
29.2714 10 0 
29.3406 10.1502 0 
28.9208 9.25 0 
29.3066 10.0905 0 
29.4648 10.4266 0 
29.422 10.3489 0 
29.4958 10.5042 0 
29.2524 10.0196 0 
27.75 6 0 
29.3504 10.2339 0 
29.4837 10.5042 0 
29.4718 10.5042 0 
29.2774 10.1203 0 
29.4543 10.5042 0 
29.3724 10.3489 0 
29.2244 10.0485 0 
29.4369 10.5042 0 
29.3938 10.4266 0 
28.9853 9.59091 0 
29.2481 10.1502 0 
28.6766 8.90909 0 
29.4119 10.5042 0 
29.2934 10.2914 0 
27.225 4 0 
29.148 10 0 
29.2582 10.2339 0 
29.1837 10.0905 0 
29.3869 10.5042 0 
29.1385 10.0098 0 
29.3044 10.3489 0 
29.1291 10.0196 0 
29.2072 10.1921 0 
29.3514 10.5042 0 
29.1152 10.0341 0 
29.3929 10.6071 0 
29.2949 10.4266 0 
29.1013 10.0485 0 
29.3686 10.6071 0 
29.316 10.5042 0 
29.2364 10.3489 0 
28.9623 9.79545 0 
29.1257 10.1502 0 
29.1662 10.2339 0 
29.0811 10.0695 0 
28.8566 9.59091 0 
29.3336 10.6071 0 
29.2666 10.5042 0 
29.0609 10.0905 0 
28.9875 10 0 
29.2835 10.6071 0 
29.1448 10.3489 0 
29.0321 10.1203 0 
29.2173 10.5042 0 
29.1098 10.2914 0 
28.125 8 0 
28.9688 10.0196 0 
29.1594 10.4266 0 
28.611 9.25 0 
29.29 10.71 0 
28.4486 8.90909 0 
29.0443 10.2339 0 
29.0033 10.1502 0 
29.2777 10.71 0 
28.9413 10.0485 0 
29.2128 10.6071 0 
29.2655 10.71 0 
29.1497 10.5042 0 
29.2478 10.71 0 
28.7003 9.59091 0 
29.0533 10.3489 0 
29.2303 10.71 0 
28.9629 10.1921 0 
28.9013 10.0905 0 
29.2051 10.71 0 
29.0822 10.5042 0 
29.1801 10.71 0 
28.827 10 0 
29.1144 10.6071 0 
28.8177 10.0098 0 
28.9225 10.2339 0 
28.8085 10.0196 0 
29.1447 10.71 0 
28.7949 10.0341 0 
28.8443 10.1502 0 
28.977 10.4266 0 
28.9322 10.3489 0 
29.1094 10.71 0 
28.7813 10.0485 0 
28.9912 10.5042 0 
29.1562 10.8438 0 
28.5436 9.59091 0 
28.7615 10.0695 0 
28.8669 10.2914 0 
29.1313 10.8438 0 
28.6184 9.79545 0 
29.0602 10.71 0 
28.2207 8.90909 0 
28.7418 10.0905 0 
28.0378 8.45455 0 
28.9798 10.6071 0 
29.0958 10.8438 0 
29.0112 10.71 0 
28.9005 10.5042 0 
28.7136 10.1203 0 
28.7644 10.2339 0 
28.8113 10.3489 0 
29.0454 10.8438 0 
28.6223 10 0 
28.6854 10.1502 0 
28.2746 9.25 0 
28.9441 10.71 0 
28.6042 10.0196 0 
27.75 8 0 
28.9747 10.8438 0 
28.6459 10.1921 0 
28.5773 10.0485 0 
29.0225 10.9775 0 
28.3532 9.59091 0 
28.7804 10.5042 0 
28.736 10.4266 0 
28.8772 10.71 0 
29.0097 10.9775 0 
28.9971 10.9775 0 
28.799 10.6071 0 
28.9791 10.9775 0 
28.5384 10.0905 0 
28.6064 10.2339 0 
28.6543 10.3489 0 
28.9611 10.9775 0 
28.8769 10.8438 0 
27.9867 8.90909 0 
26.25 0 0 
28.9358 10.9775 0 
28.7871 10.71 0 
28.9106 10.9775 0 
28.6607 10.5042 0 
28.4177 10 0 
26.55 4 0 
28.552 10.2914 0 
28.483 10.1502 0 
28.4087 10.0098 0 
28.8751 10.9775 0 
28.3998 10.0196 0 
28.3866 10.0341 0 
28.8399 10.9775 0 
28.6974 10.71 0 
28.3735 10.0485 0 
28.1625 9.59091 0 
28.7436 10.8438 0 
28.4976 10.3489 0 
28.3543 10.0695 0 
28.791 10.9775 0 
28.4052 10.2339 0 
28.3352 10.0905 0 
28.8519 11.1481 0 
28.1869 9.79545 0 
28.5607 10.6071 0 
28.5053 10.5042 0 
28.7423 10.9775 0 
28.8258 11.1481 0 
28.308 10.1203 0 
28.5787 10.71 0 
27.904 9.25 0 
28.7893 11.1481 0 
28.424 10.4266 0 
27.7528 8.90909 0 
28.2807 10.1502 0 
28.6758 10.9775 0 
27.375 8 0 
28.7383 11.1481 0 
28.1619 10 0 
28.5649 10.8438 0 
28.2425 10.1921 0 
28.6096 10.9775 0 
28.1444 10.0196 0 
28.298 10.3489 0 
28.4605 10.71 0 
26.7 6 0 
27.9315 9.59091 0 
28.3503 10.5042 0 
28.6676 11.1481 0 
28.1187 10.0485 0 
28.2042 10.2339 0 
28.5207 10.9775 0 
28.0813 10.0905 0 
28.6814 11.3186 0 
27.3818 8.45455 0 
28.6679 11.3186 0 
28.1516 10.2914 0 
28.5703 11.1481 0 
28.6544 11.3186 0 
28.6358 11.3186 0 
27.5109 8.90909 0 
28.3072 10.71 0 
28.6173 11.3186 0 
28.2524 10.6071 0 
28.4322 10.9775 0 
28.028 10.1502 0 
28.5915 11.3186 0 
28.0989 10.3489 0 
28.33 10.8438 0 
28.5658 11.3186 0 
28.153 10.5042 0 
27.9061 10 0 
27.8975 10.0098 0 
28.5303 11.3186 0 
28.4384 11.1481 0 
27.7002 9.59091 0 
27.889 10.0196 0 
27.8765 10.0341 0 
28.4949 11.3186 0 
28.3154 10.9775 0 
27.9532 10.2339 0 
27.8639 10.0485 0 
28.0276 10.4266 0 
28.1544 10.71 0 
27.8457 10.0695 0 
27.4909 9.25 0 
28.4463 11.3186 0 
27 8 0 
27.8275 10.0905 0 
28.3979 11.3186 0 
27.8015 10.1203 0 
27.6542 9.79545 0 
25.675 2 0 
28.1991 10.9775 0 
27.2691 8.90909 0 
27.9563 10.5042 0 
28.4682 11.5318 0 
28.2625 11.1481 0 
27.7755 10.1502 0 
28.3322 11.3186 0 
27.8502 10.3489 0 
28.4401 11.5318 0 
25.875 4 0 
27.7391 10.1921 0 
28.4019 11.5318 0 
28.0268 10.8438 0 
28.2668 11.3186 0 
27.9602 10.71 0 
28.3498 11.5318 0 
27.4223 9.59091 0 
27.7026 10.2339 0 
27.5927 10 0 
28.0486 10.9775 0 
27.8616 10.6071 0 
27.5762 10.0196 0 
28.1794 11.3186 0 
28.2786 11.5318 0 
27.5519 10.0485 0 
27.6524 10.2914 0 
28.0319 11.1481 0 
27.7108 10.5042 0 
27.5167 10.0905 0 
27.0169 8.90909 0 
28.0924 11.3186 0 
27.6021 10.3489 0 
27.8988 10.9775 0 
28.1818 11.5318 0 
27.7667 10.71 0 
26.625 8 0 
28.255 11.745 0 
27.4664 10.1502 0 
28.2402 11.745 0 
28.2256 11.745 0 
28.2059 11.745 0 
27.978 11.3186 0 
26.7234 8.45455 0 
27.0259 9.25 0 
27.5342 10.4266 0 
28.1863 11.745 0 
27.1442 9.59091 0 
28.0516 11.5318 0 
28.1598 11.745 0 
27.3959 10.2339 0 
28.1334 11.745 0 
27.2793 10 0 
27.2714 10.0098 0 
27.2635 10.0196 0 
27.7086 10.9775 0 
27.6431 10.8438 0 
28.0975 11.745 0 
27.8643 11.3186 0 
27.4661 10.5042 0 
27.2518 10.0341 0 
27.2401 10.0485 0 
28.0617 11.745 0 
26.7648 8.90909 0 
27.5255 10.71 0 
27.7353 11.1481 0 
27.2231 10.0695 0 
28.0133 11.745 0 
27.2061 10.0905 0 
27.8791 11.5318 0 
27.2986 10.3489 0 
27.1818 10.1203 0 
27.9651 11.745 0 
27.3758 10.6071 0 
27.0077 9.79545 0 
27.7174 11.3186 0 
27.1576 10.1502 0 
25 0 0 
27.5193 10.9775 0 
27.9003 11.745 0 
27.1236 10.1921 0 
26.25 8 0 
27.9939 12.0061 0 
25.65 6 0 
27.8359 11.745 0 
26.8136 9.59091 0 
27.0896 10.2339 0 
27.9626 12.0061 0 
27.2853 10.71 0 
25.2 4 0 
27.5713 11.3186 0 
27.9218 12.0061 0 
26.4998 8.90909 0 
27.167 10.5042 0 
27.6541 11.5318 0 
27.0427 10.2914 0 
27.7503 11.745 0 
26.9033 10 0 
27.8677 12.0061 0 
26.8882 10.0196 0 
26.8659 10.0485 0 
26.9958 10.3489 0 
27.2836 10.9775 0 
27.6652 11.745 0 
27.3609 11.1481 0 
27.7955 12.0061 0 
26.499 9.25 0 
[...]
POINT_DATA 1909
SCALARS phi float 1
LOOKUP_TABLE default
VECTORS Displacement float
0 0 0
0 0 0
0 -0.00598304 0
0 0 0
0 -0.00827108 0
0 0 0
0 -0.00716628 0
0 0 0
0 0 0
0 -0.00301165 0
0.0169717 -0.00518373 0
0 0 0
0 0.00393277 0
0.0329108 -0.00308461 0
0 0 0
0.0230386 -0.00507484 0
0 0.0128358 0
0 0 0
0.0436793 0.00729427 0
0.0297097 -0.00514709 0
0 0 0
0.0494186 0.0237887 0
0 0 0
0.0368461 -0.00552624 0
0 0 0
0.0698143 -0.00339767 0
0.0440544 -0.00621743 0
0.0822399 0.000851991 0
0 0 0
0.0749008 -0.00375179 0
0.0911332 0.00656864 0
0.0968657 0.0134001 0
0.0799014 -0.00419565 0
0.100315 0.0205998 0
0 0 0
0.0848776 -0.00490668 0
0.10304 0.0281667 0
0.0508757 -0.0071775 0
0.0897168 -0.00572241 0
0.105618 0.0371348 0
0 0 0
0.0943264 -0.00670965 0
0.120512 0.00349329 0
0.098707 -0.00779762 0
0.132 0.0157687 0
0.0568802 -0.00835119 0
0 0 0
0.130684 -0.000496638 0
0.136951 0.0324924 0
0.102766 -0.00900987 0
0.13796 0.0564228 0
0.106503 -0.0103123 0
0 0 0
0.139285 -0.00467109 0
0.109874 -0.011706 0
0.0617112 -0.00969324 0
0.146553 -0.0092136 0
0.112853 -0.0131836 0
0 0 0
0.171504 0.00174326 0
0.176465 0.00563834 0
0.115448 -0.0147249 0
0.17508 -0.00133753 0
0.181325 0.010581 0
0.152452 -0.0141031 0
0.184997 0.0176091 0
0.183927 0.00752428 0
0.188796 0.0276164 0
0.189594 0.0252623 0
0.178234 -0.0044993 0
0.188446 0.0122437 0
0.189722 0.0345208 0
0.190366 0.0232934 0
0.186268 0.00479575 0
0.190492 0.0321425 0
0.183095 -0.000875556 0
0.191124 0.0213102 0
0.190021 0.0423845 0
0.191511 0.0293802 0
0.190373 0.0425231 0
0.281004 0.0752286 0
0.191828 0.0195579 0
0.190774 0.0424826 0
0.349184 0.0987344 0
0.279166 0.0741676 0
0.191396 0.0423713 0
0.347315 0.0976632 0
0.353034 0.0982853 0
0.345165 0.0963635 0
0.192073 0.0421168 0
0.341497 0.0945337 0
0.353149 0.0972054 0
0.275871 0.0720148 0
0.351323 0.0961217 0
0.192888 0.0263822 0
0.192542 0.0177823 0
0.193073 0.0414189 0
0.352986 0.0962587 0
0.337737 0.0925336 0
0.35285 0.0953966 0
0.353511 0.0959986 0
0.194108 0.0406712 0
0.347391 0.0931837 0
0.117606 -0.0163542 0
0.332386 0.0895526 0
0.352415 0.0943084 0
0.271322 0.0681374 0
0.353287 0.0944056 0
0.35182 0.0931231 0
0.352937 0.0946854 0
0.327197 0.0865588 0
0.0650811 -0.0111757 0
0.195521 0.0391564 0
0.352875 0.0939124 0
0.193197 0.0161502 0
0.18855 0.0022607 0
0 0 0
0.35052 0.0912801 0
0.352793 0.0931228 0
0.340726 0.0884916 0
0.191528 0.00810781 0
0.352817 0.0920084 0
0.194694 0.0231843 0
0.320408 0.0821209 0
0.352646 0.0918908 0
0.196904 0.0377049 0
0.352199 0.0928909 0
0.348685 0.089235 0
0.352486 0.0906067 0
0.265579 0.0620576 0
0.352054 0.0912045 0
0.313853 0.0778474 0
0.351364 0.0880833 0
0.345584 0.0859965 0
0.352192 0.0886686 0
0.193894 0.0144361 0
0.351231 0.0909067 0
0.198658 0.0353962 0
0.330763 0.0810401 0
0.351149 0.0900228 0
0.351803 0.0885664 0
0.351854 0.0866834 0
0.351064 0.0891188 0
0.341895 0.0826531 0
0.181245 -0.0076789 0
0.305411 0.0719097 0
0.350929 0.0877654 0
0.351108 0.083853 0
0.200269 0.0332385 0
0.350786 0.0863956 0
0.34753 0.082043 0
0.349849 0.08798 0
0.351371 0.084604 0
0.258268 0.0537264 0
0.196916 0.0197581 0
0.194541 0.0128101 0
0.336328 0.0778056 0
0.35057 0.0843945 0
0.297371 0.066352 0
0.349688 0.0861125 0
0.350056 0.0809989 0
0.316687 0.0705961 0
0.350348 0.0824035 0
0.349433 0.0833426 0
0.202193 0.0303792 0
0.348441 0.0849432 0
0.330304 0.073043 0
0.350446 0.0789879 0
0.348349 0.0839877 0
0.347989 0.0770482 0
0.350024 0.0795975 0
0.348255 0.0830374 0
0.190654 -0.00022693 0
0.287164 0.0591836 0
0.339688 0.0734635 0
0.195288 0.0110648 0
0.348118 0.0816464 0
0.349041 0.0793866 0
0.349704 0.0768744 0
0.34798 0.0802712 0
0.345252 0.0731235 0
0.20383 0.0276992 0
0.321756 0.0666538 0
0.248979 0.0435522 0
0.347783 0.0783086 0
0.346548 0.0807313 0
0.194336 0.00422749 0
0.277708 0.0526159 0
0.349126 0.0732131 0
0.347589 0.0763898 0
0.199472 0.0160493 0
0.347881 0.0715152 0
0.346376 0.0788523 0
0.348481 0.0740188 0
0.29789 0.057467 0
0.196013 0.00938883 0
0.340574 0.0678994 0
0.312978 0.0605339 0
0.347315 0.0737362 0
0.346122 0.0761594 0
0.348405 0.0697191 0
0.205695 0.0245714 0
0.326096 0.0621728 0
0.344698 0.0765993 0
0.347045 0.0711803 0
0.34461 0.0756767 0
0.266145 0.0447574 0
0.345755 0.0724232 0
0.344523 0.0747678 0
0.335069 0.0627714 0
0.344397 0.0734547 0
0.347661 0.0671166 0
0.346839 0.0651947 0
0.346679 0.0677505 0
0.344271 0.0721693 0
0.301051 0.0528492 0
0.196893 0.00753787 0
0.341386 0.0620303 0
0.207174 0.0216082 0
0.192668 -0.00270939 0
0.344094 0.0703523 0
0.345249 0.0674368 0
0.237877 0.0322785 0
0.188478 -0.00723396 0
0.346336 0.0645084 0
0.34392 0.0685883 0
0.25607 0.0377942 0
0.342388 0.0712515 0
0.344627 0.06083 0
0.326547 0.0562042 0
0.183887 -0.0109646 0
0.274504 0.0424413 0
0.342228 0.0695128 0
0.343679 0.0661594 0
0.20221 0.0119097 0
0.289268 0.045613 0
0.197798 0.00576692 0
0.345818 0.060289 0
0.341996 0.0670587 0
0.343447 0.0638257 0
0.345695 0.0586179 0
0.305075 0.0482547 0
0.34459 0.0610706 0
0.208799 0.018319 0
0.340407 0.0553035 0
0.196969 0.000332532 0
0.317127 0.0497773 0
0.341669 0.0636858 0
0.343129 0.0607049 0
0.340106 0.0661676 0
0.244774 0.0300114 0
0.156909 -0.0192699 0
0.34523 0.0563441 0
0.340034 0.0653372 0
0.339963 0.0645214 0
0.327945 0.0502048 0
0.339859 0.06335 0
0.342822 0.057734 0
0.274369 0.0370321 0
0.339757 0.0622045 0
0.341219 0.0591985 0
0.198892 0.00373855 0
0.335043 0.0498808 0
0.194537 -0.0051991 0
0.339612 0.0605914 0
0.343766 0.0532512 0
0.119364 -0.0180175 0
0.210045 0.015178 0
0.343892 0.0513651 0
0.303619 0.0418619 0
0.339468 0.0590238 0
0.226631 0.0208276 0
0.342417 0.0538568 0
0.236097 0.0235309 0
0.339823 0.0484013 0
0.339265 0.056864 0
0.249228 0.026861 0
0.337378 0.059892 0
0.340622 0.0534246 0
0.260873 0.0293729 0
0.337245 0.0583486 0
0.339064 0.0547795 0
0.342034 0.050203 0
0.204923 0.00705035 0
0.326091 0.043142 0
0.341874 0.0466237 0
0.276333 0.0322667 0
0.200013 0.00178107 0
0.337052 0.0561851 0
0.338786 0.0519748 0
0.289524 0.0342595 0
0.211358 0.0115987 0
0.33678 0.053212 0
0.341513 0.0455359 0
0.30419 0.0357823 0
0.338514 0.0492879 0
0.34202 0.0439014 0
0.186293 -0.0142369 0
0.227702 0.0166184 0
0.33986 0.0462433 0
0.199431 -0.00375798 0
0.334666 0.0539929 0
0.196254 -0.00776856 0
0.337701 0.0407879 0
0.315474 0.0364478 0
0.33461 0.0532607 0
0.246174 0.0208353 0
0.3364 0.0492305 0
0.334555 0.0525405 0
0.338143 0.0457667 0
0.334475 0.0515133 0
0.201353 -0.000512242 0
0.340948 0.0411964 0
0.334396 0.050506 0
0.325607 0.0360726 0
0.271792 0.0253922 0
0.334282 0.0490911 0
0.337783 0.0424219 0
0.334167 0.04771 0
0.212388 0.00818104 0
0.335884 0.0440589 0
0.218391 0.0101063 0
0.332046 0.0351219 0
0.22251 0.0112002 0
0.334004 0.0458054 0
0.228749 0.0126886 0
0.299799 0.0284949 0
0.338956 0.0376326 0
0.339644 0.0358462 0
0.33384 0.0439584 0
0.235334 0.0140927 0
0.337317 0.0381598 0
0.331402 0.0468705 0
0.202675 -0.00275378 0
0.245784 0.0161258 0
0.336148 0.0330818 0
0.331298 0.0454976 0
0.207435 0.00116672 0
0.333609 0.0414682 0
0.197838 -0.0103328 0
0.256073 0.0177875 0
0.192766 -0.0137233 0
0.3352 0.0375727 0
0.33115 0.0435898 0
0.333379 0.0390743 0
0.336884 0.0341669 0
0.270291 0.0196821 0
0.322022 0.028396 0
0.337599 0.0308576 0
0.330939 0.040976 0
0.213403 0.00413394 0
0.283062 0.0209042 0
0.201748 -0.00813263 0
0.333063 0.0359304 0
0.218537 0.00546912 0
0.188318 -0.0175699 0
0.330645 0.0374768 0
0.29782 0.0216463 0
0.226215 0.00695957 0
0.328234 0.0401845 0
0.204208 -0.00541574 0
0.336338 0.0292253 0
0.337205 0.0277321 0
0.332753 0.0329436 0
0.32819 0.0395282 0
0.328145 0.0388827 0
0.33435 0.0297738 0
0.328082 0.0379752 0
0.240495 0.00929926 0
0.309449 0.0216923 0
0.333148 0.0249708 0
0.328019 0.0370852 0
0.330243 0.0329325 0
0.199278 -0.0129786 0
0 0 0
0.327929 0.0358467 0
0.332348 0.0291428 0
0.327839 0.0346381 0
0.33576 0.0247121 0
0.214231 0.000261774 0
0.120659 -0.0197875 0
0.320088 0.0207409 0
0.263292 0.0121725 0
0.215541 0.000554017 0
0.327711 0.0329821 0
0.216832 0.000806126 0
0.218801 0.00115442 0
0.327585 0.0313778 0
0.331966 0.0255864 0
0.221169 0.00157388 0
0.205653 -0.00804422 0
0.329717 0.0272502 0
0.326823 0.0193745 0
0.225356 0.00229191 0
0.327411 0.0292257 0
0.291269 0.0140786 0
0.230295 0.00308391 0
0.324436 0.0322793 0
0.209724 -0.00588967 0
0.333442 0.0208716 0
0.33443 0.0193706 0
0.327241 0.0271619 0
0.324363 0.0310521 0
0.238437 0.00425316 0
0.331512 0.0212253 0
0.203964 -0.0128345 0
0.324259 0.029385 0
0.331007 0.016992 0
0.20057 -0.0156212 0
0.247253 0.00527894 0
0.327017 0.0244651 0
0.190071 -0.0208932 0
0.324115 0.0271382 0
0.214934 -0.00436211 0
0.329073 0.0204592 0
0.260135 0.00643477 0
0.326803 0.0219123 0
0.216225 -0.00425765 0
0.315211 0.0131024 0
0.331138 0.017216 0
0.15987 -0.0246576 0
0.207259 -0.0111802 0
0.332345 0.0145241 0
0.323919 0.0241679 0
0.218505 -0.00409886 0
0.272514 0.00705955 0
0.326533 0.0186737 0
0.223358 -0.00366818 0
0.320703 0.0249531 0
0.195998 -0.0202834 0
0.320674 0.024375 0
0.287642 0.00718385 0
0.323659 0.0203498 0
0.320645 0.0238079 0
0.320606 0.0230292 0
0.201714 -0.018356 0
0.330655 0.0124123 0
0.320567 0.0222676 0
0.331724 0.0112048 0
0.326288 0.0156489 0
0.233655 -0.0027626 0
0.320514 0.0212257 0
0.300159 0.00668448 0
0.328346 0.0127053 0
0.320463 0.0202119 0
0.327495 0.00890943 0
0.215538 -0.0087928 0
0.215896 -0.00882893 0
0.320392 0.0188402 0
0.323332 0.0156057 0
0.208697 -0.0142922 0
0.216258 -0.00886717 0
0.216849 -0.00891042 0
0.320324 0.0175144 0
0.325987 0.0119073 0
0.252729 -0.00147216 0
0.217488 -0.00894743 0
0.312143 0.0051838 0
0.330077 0.00798649 0
0.21865 -0.00894968 0
0.206053 -0.0179426 0
0.320234 0.0157496 0
0.191455 -0.0242348 0
0.220031 -0.00891768 0
0.320149 0.0140571 0
0.222581 -0.00877806 0
0.212 -0.0140507 0
0.0667454 -0.0127768 0
0.325705 0.00839582 0
0.202705 -0.0210786 0
0.319968 0.00337135 0
0.316558 0.0167228 0
0.322939 0.0099024 0
0.225829 -0.0085466 0
0.320038 0.0118482 0
0.279918 -0.000832 0
0.316518 0.0156538 0
0.121538 -0.0215527 0
0.231549 -0.00814118 0
0.316461 0.0142475 0
0.327532 0.00390921 0
0.319935 0.00974174 0
0.328698 0.00263802 0
0.316385 0.0123934 0
0.210172 -0.0179999 0
0.238436 -0.00773226 0
0.216078 -0.0139488 0
0.32537 0.00407447 0
0.32488 0.000510925 0
0.216596 -0.0140936 0
0.319803 0.00704243 0
0.316283 0.00996969 0
0.217406 -0.0143079 0
0.249199 -0.00733116 0
0.322464 0.00311547 0
0.30622 -0.00280485 0
0.218808 -0.0145995 0
0.203578 -0.023896 0
0.319669 0.00445213 0
0.260528 -0.00733145 0
0.324985 -6.95133e-05 0
0.316152 0.00685014 0
0.326422 -0.00239668 0
0.192562 -0.0275908 0
0.312279 0.00916818 0
0.221676 -0.0149333 0
0.312271 0.00866836 0
0.312263 0.00817733 0
0.312254 0.00752399 0
0.319498 0.00116292 0
0.198186 -0.0268834 0
0.207876 -0.0235955 0
0.27532 -0.00793794 0
0.312246 0.00688316 0
0.211402 -0.0216817 0
0.315983 0.00289782 0
0.312235 0.00602395 0
0.228296 -0.0152253 0
0.312224 0.00518293 0
0.216582 -0.0189133 0
0.216776 -0.0190039 0
0.216982 -0.0190918 0
0.324371 -0.00515949 0
0.325586 -0.00623345 0
0.312207 0.00405722 0
0.3193 -0.00203365 0
0.288446 -0.00918378 0
0.217276 -0.0192273 0
0.217576 -0.0193627 0
0.312191 0.00295707 0
0.204287 -0.0267011 0
0.320618 -0.00823297 0
0.321779 -0.0050619 0
0.218032 -0.0195548 0
0.312167 0.00149503 0
0.218488 -0.0197516 0
0.31576 -0.00208197 0
0.242535 -0.0155755 0
0.219218 -0.0200134 0
0.312141 6.49014e-05 0
0.301814 -0.011544 0
0.214342 -0.0232685 0
0.31901 -0.00606679 0
0.220004 -0.0202742 0
0 0 0
0.323632 -0.0100236 0
0.312105 -0.00182091 0
0.221453 -0.0205766 0
0.19333 -0.0309461 0
0.307569 0.000844107 0
0.161313 -0.030224 0
0.312061 -0.0036727 0
0.212498 -0.0260223 0
0.223272 -0.0208433 0
0.307559 -0.000128777 0
0.311016 -0.0141373 0
0.121936 -0.0234568 0
0.318676 -0.00998624 0
0.307543 -0.00137419 0
0.204876 -0.0296303 0
0.266641 -0.0167009 0
0.315416 -0.00833721 0
0.226726 -0.0211272 0
0.311984 -0.00609186 0
0.217397 -0.0244915 0
0.307521 -0.00299275 0
0.21764 -0.0247085 0
0.218065 -0.0250118 0
0.231296 -0.0213708 0
0.321874 -0.0159089 0
0.311891 -0.00847096 0
0.320649 -0.0148034 0
0.30749 -0.00511071 0
0.209241 -0.0299218 0
0.218731 -0.0254488 0
0.31707 -0.0178407 0
0.318183 -0.0148212 0
0.239038 -0.0218047 0
0.307441 -0.0078852 0
0.311749 -0.0115412 0
0.219736 -0.0260871 0
0.294246 -0.0202332 0
0.205291 -0.0325503 0
0.199413 -0.033481 0
0.213262 -0.0303235 0
0.314835 -0.0160559 0
0.248216 -0.0225092 0
0.193831 -0.0343086 0
0.302748 -0.00708239 0
0.22141 -0.0270072 0
0.311583 -0.0145488 0
0.302752 -0.00757212 0
0.307356 -0.0115022 0
0.31905 -0.0214327 0
0.302755 -0.00805656 0
0.317618 -0.019493 0
0.302759 -0.00867604 0
0.302762 -0.00928926 0
0.302764 -0.0100894 0
0.217965 -0.0299295 0
0.261199 -0.0239854 0
0.218102 -0.0300381 0
0.218237 -0.0301475 0
0.302765 -0.0108818 0
0.218425 -0.0303111 0
0.225037 -0.0282924 0
0.311333 -0.0183519 0
0.218613 -0.0304758 0
0.302762 -0.0119264 0
0.218877 -0.0307174 0
0.307201 -0.0161655 0
0.302756 -0.0129611 0
0.21914 -0.0309615 0
0.219508 -0.0313134 0
0.205559 -0.0356281 0
0.273934 -0.0261532 0
0.302742 -0.0143279 0
0.318066 -0.0259968 0
0.316754 -0.0251324 0
0.219876 -0.0316695 0
0.311042 -0.0220569 0
0.302725 -0.0156807 0
0.31147 -0.0273706 0
0.215946 -0.0337445 0
0.220389 -0.0321723 0
0.313837 -0.0253093 0
0.233876 -0.0301637 0
0.302693 -0.0174607 0
0.213788 -0.0352966 0
0.220893 -0.0326848 0
0.194028 -0.0376636 0
0.306918 -0.0220581 0
0.1219 -0.0252985 0
0.302655 -0.0192184 0
0.288041 -0.0296308 0
0.209918 -0.0370213 0
0.221689 -0.0333695 0
0.310614 -0.0266337 0
0.29711 -0.0162122 0
0.315731 -0.0305203 0
0.302592 -0.0215075 0
0.297116 -0.0172414 0
0.222573 -0.0340547 0
0.205645 -0.0386956 0
0.297119 -0.018516 0
0.218442 -0.0361023 0
0.218651 -0.0363239 0
0.302517 -0.0237595 0
0.298628 -0.0333446 0
0.252149 -0.0332902 0
0.297117 -0.0201326 0
0.218965 -0.0366536 0
0.224336 -0.0348968 0
0.310119 -0.0310727 0
0.21942 -0.0371381 0
0.199723 -0.0400864 0
0.306417 -0.0293262 0
0.297106 -0.0222123 0
0.302397 -0.0266479 0
0.226638 -0.0357405 0
0.220059 -0.0378418 0
0.161243 -0.0359413 0
0.313326 -0.0368525 0
0.213896 -0.04022 0
0.297076 -0.0249 0
0.312221 -0.0360997 0
0.193975 -0.041025 0
0.302255 -0.0294792 0
0.306401 -0.0382159 0
0.220924 -0.0388559 0
0.231082 -0.0368887 0
0.205552 -0.04195 0
0.30941 -0.0364215 0
0.29701 -0.0283603 0
0 0 0
0.302038 -0.0330448 0
0.278421 -0.0388344 0
0.29138 -0.0251979 0
0.222116 -0.0402963 0
0.237019 -0.0382324 0
0.291384 -0.0257475 0
0.291387 -0.0262933 0
0.0664925 -0.0144506 0
0.218338 -0.0422293 0
0.29139 -0.0269596 0
0.305558 -0.0380607 0
0.218446 -0.0423471 0
0.218554 -0.0424654 0
0.291392 -0.0276211 0
0.309393 -0.042673 0
0.218706 -0.0426407 0
0.296877 -0.0327682 0
0.301784 -0.0365257 0
0.291393 -0.0284496 0
0.218856 -0.0428169 0
0.308604 -0.0415718 0
0.219068 -0.0430744 0
0.291392 -0.0292714 0
0.219278 -0.0433337 0
0.246463 -0.0404818 0
0.291389 -0.0303193 0
0.224068 -0.042344 0
0.21957 -0.0437074 0
0.20966 -0.0449519 0
0.121361 -0.0273166 0
0.291383 -0.0313576 0
0.20527 -0.0451893 0
0.219856 -0.0440851 0
0.193649 -0.0443775 0
0.291371 -0.0326941 0
0.220247 -0.0446218 0
0.301409 -0.0408221 0
0.213586 -0.0458229 0
0.215868 -0.0456077 0
0.291354 -0.0340163 0
0.220628 -0.0451656 0
0.296627 -0.0382974 0
0.257205 -0.043489 0
0.291326 -0.035721 0
0.308647 -0.0480871 0
0.221138 -0.0459242 0
0.307418 -0.0476401 0
0.199143 -0.0467137 0
0.228222 -0.0454378 0
0.298813 -0.0480461 0
0.29129 -0.0374045 0
0.221625 -0.0466959 0
0.300974 -0.0449961 0
0.304125 -0.0482514 0
0.291232 -0.0395637 0
0.222267 -0.0477427 0
0.270307 -0.0481462 0
0.204769 -0.0486395 0
0.284568 -0.0356079 0
0.29618 -0.0450981 0
0.217682 -0.0490951 0
0.291161 -0.0416914 0
0.284574 -0.0367909 0
0.217849 -0.0493296 0
0.222885 -0.048807 0
0.218096 -0.0496784 0
0.193083 -0.0477297 0
0.284576 -0.0381886 0
0.300349 -0.0500289 0
0.306039 -0.0534156 0
0.218451 -0.0501898 0
0.291051 -0.0443924 0
0.284572 -0.0398857 0
0.223717 -0.050233 0
0.238718 -0.0504297 0
0.218946 -0.050929 0
0.212793 -0.0513499 0
0.281579 -0.0533351 0
0.284557 -0.0419882 0
0.29092 -0.0470464 0
0.219617 -0.0519832 0
0.224544 -0.0517051 0
0.299634 -0.0549025 0
0.284522 -0.0446244 0
0.204073 -0.0520672 0
0.295413 -0.0532689 0
0.290722 -0.050367 0
0.220503 -0.0534675 0
0.120383 -0.0291855 0
0.159674 -0.0417629 0
0.302395 -0.0598751 0
0.226273 -0.0536361 0
0.208177 -0.0537328 0
0.28445 -0.0479426 0
0.301872 -0.059828 0
0.291232 -0.059893 0
0.192271 -0.0510637 0
0.29049 -0.0536183 0
0.22164 -0.0555389 0
0.29863 -0.0606399 0
0.216444 -0.0558077 0
0.27754 -0.0458975 0
0.216526 -0.0559285 0
0.216607 -0.0560497 0
0.228784 -0.0556533 0
0.197715 -0.0533527 0
0.277543 -0.0465371 0
0.259142 -0.0583202 0
0.216724 -0.0562285 0
0.284315 -0.052105 0
0.21684 -0.0564081 0
0.277546 -0.0471732 0
0.217005 -0.0566693 0
0.277548 -0.0479131 0
0.217168 -0.0569319 0
0.29015 -0.057615 0
0.277548 -0.0486487 0
0.217397 -0.0573085 0
0.277547 -0.0495282 0
0.217624 -0.0576879 0
0.203099 -0.0557227 0
0.277545 -0.0504021 0
0.211407 -0.0574931 0
0.295962 -0.0656929 0
0.217935 -0.0582246 0
0.294154 -0.0628463 0
0.277538 -0.051471 0
0.22299 -0.0584357 0
0.21824 -0.058767 0
0.233934 -0.05845 0
0.284071 -0.0572746 0
0.277529 -0.0525322 0
0.289757 -0.0615132 0
0.297493 -0.0661672 0
0.213456 -0.0586804 0
0 0 0
0.218646 -0.0595253 0
0.277513 -0.0538511 0
0.19123 -0.0543859 0
0.219042 -0.060295 0
0.277492 -0.0551592 0
0.277459 -0.056799 0
0.219552 -0.0613593 0
0.240833 -0.0619023 0
0.289198 -0.0662132 0
0.277418 -0.0584229 0
0.283648 -0.0635992 0
0.220034 -0.0624493 0
0.224751 -0.0625028 0
0.29646 -0.0723186 0
0.201931 -0.0593453 0
0.277355 -0.0604619 0
0.295905 -0.0725617 0
0.281231 -0.0698213 0
0.118873 -0.0312525 0
0.22062 -0.0639391 0
0.21444 -0.0631736 0
0.27728 -0.062477 0
0.21458 -0.0634166 0
0.28856 -0.0707771 0
0.214785 -0.0637773 0
0.269242 -0.0576209 0
0.250671 -0.0671454 0
0.29217 -0.0737773 0
0.215076 -0.0643052 0
0.221122 -0.0654735 0
0.277167 -0.0649957 0
0.269246 -0.0590174 0
0.209507 -0.063515 0
0.189971 -0.0576751 0
0.215479 -0.0650668 0
0.269245 -0.0605954 0
0.195472 -0.0599808 0
0.282939 -0.0711903 0
0.205177 -0.0633025 0
0.277036 -0.0674786 0
0.216015 -0.0661519 0
0.221715 -0.0674998 0
0.269235 -0.0624267 0
0.294043 -0.0785265 0
0.228887 -0.0686777 0
0.287683 -0.0761563 0
0.269211 -0.0646023 0
0.216699 -0.0676792 0
0.200426 -0.0631976 0
0.260896 -0.0734797 0
0.276842 -0.070552 0
0.222191 -0.0695683 0
0.156639 -0.0475848 0
0.269164 -0.0672332 0
0.276618 -0.0735727 0
0.217515 -0.0698048 0
0.0642032 -0.0160914 0
0.286698 -0.0813593 0
0.269078 -0.0704491 0
0.188497 -0.0609371 0
0.222729 -0.0722452 0
0.281796 -0.0800956 0
0.276296 -0.0772601 0
0.2882 -0.0844319 0
0.211818 -0.070313 0
0.211882 -0.0704366 0
0.211946 -0.0705605 0
0.212039 -0.0707434 0
0.270824 -0.0817563 0
0.212132 -0.0709269 0
0.218422 -0.0727212 0
0.28914 -0.085799 0
0.212265 -0.0711937 0
0.268928 -0.0743939 0
0.212396 -0.0714617 0
0.21258 -0.0718454 0
0.206874 -0.0700368 0
0.198729 -0.0669959 0
0.260622 -0.0693002 0
0.223264 -0.0749776 0
0.212761 -0.0722316 0
0.116951 -0.0330603 0
0.275928 -0.0808711 0
0.260625 -0.0700633 0
0.240124 -0.0784622 0
0.213008 -0.0727758 0
0.260626 -0.0708237 0
0.285332 -0.08732 0
0.213247 -0.0733247 0
0.260625 -0.0716693 0
0.260623 -0.0725118 0
0.213565 -0.0740862 0
0.268673 -0.0792166 0
0.260618 -0.0734727 0
0.208319 -0.0725997 0
0.213868 -0.0748562 0
0.26061 -0.0744296 0
0.219373 -0.0766565 0
0.275413 -0.0852034 0
0.192438 -0.0665629 0
0.260598 -0.0755475 0
0.186832 -0.0641472 0
0.277188 -0.0895001 0
0.224751 -0.0785833 0
0.214257 -0.075908 0
0.260582 -0.0766598 0
0.280013 -0.090275 0
0.214622 -0.0769727 0
0.260557 -0.0779858 0
0.283803 -0.0931036 0
0 0 0
0.260528 -0.079304 0
0.268253 -0.0850571 0
0.274829 -0.0894281 0
0.215061 -0.0784084 0
0.260485 -0.0808983 0
0.196643 -0.0710064 0
0.227299 -0.0825046 0
0.260434 -0.0824814 0
0.215468 -0.0798639 0
0.200431 -0.0734807 0
0.220246 -0.081909 0
0.26036 -0.084412 0
0.208305 -0.0779076 0
0.208425 -0.0781546 0
0.208598 -0.0785206 0
0.203732 -0.0763558 0
0.274033 -0.0943992 0
0.215929 -0.0818002 0
0.279976 -0.0980591 0
0.208843 -0.0790548 0