# vtk DataFile Version 3.0
File generated from DClib
ASCII

DATASET UNSTRUCTURED_GRID
POINTS 4280 float
50 0 0 
50 0.714286 0 
49.3 0.2 0 
48.75 0 0 
50 1.42857 0 
48.6 0.4 0 
49.3 1.61496 0 
48.6 1.10209 0 
50 2.14286 0 
47.9 0.6 0 
48.6 1.79662 0 
47.5 0 0 
47.3692 0.4 0 
48.6 2.48485 0 
50 2.85714 0 
47.9 1.97408 0 
47.2 0.8 0 
49.3 3.01496 0 
47.2 1.47897 0 
46.8155 0.2 0 
48.6 3.16805 0 
47.2 2.14787 0 
50 3.57143 0 
46.5 1 0 
46.25 0 0 
46.1442 0.4 0 
47.9 3.31694 0 
47.2 2.80837 0 
46.0139 0.8 0 
48.6 3.84746 0 
46.5 2.31851 0 
50 4.28571 0 
45.8 1.2 0 
47.2 3.46216 0 
49.3 4.40598 0 
45.4847 0.6 0 
45.8 1.84767 0 
48.6 4.52436 0 
45.8 2.48653 0 
47.2 4.1109 0 
50 5 0 
45 0 0 
46.5 3.60423 0 
44.9248 0.4 0 
47.9 4.64106 0 
45.1 1.4 0 
44.8356 0.8 0 
45.8 3.11804 0 
48.6 5.2 0 
44.6778 1.2 0 
47.2 4.75629 0 
45.1 2.65245 0 
45.8 3.74367 0 
44.3442 0.2 0 
50 5.71429 0 
44.4 1.6 0 
49.3 5.79402 0 
44.1953 1 0 
46.5 4.87026 0 
44.4 2.21092 0 
48.6 5.87564 0 
45.8 4.3649 0 
47.2 5.4 0 
43.75 0 0 
45.1 3.88102 0 
44.4 2.81679 0 
43.7108 0.4 0 
47.9 5.95894 0 
43.6648 0.8 0 
50 6.42857 0 
45.8 4.98318 0 
43.5624 1.2 0 
43.7 1.8 0 
44.4 3.41847 0 
47.2 6.04371 0 
48.6 6.55254 0 
43.3544 1.6 0 
44.4 4.01679 0 
43.0972 0.6 0 
43.7 2.98009 0 
45.8 5.6 0 
46.5 6.12974 0 
45.1 5.09527 0 
50 7.14286 0 
42.9354 1.4 0 
49.3 7.18504 0 
47.2 6.6891 0 
44.4 4.61259 0 
43 2 0 
48.6 7.23195 0 
43 2.57143 0 
42.5 0 0 
45.8 6.21682 0 
42.5017 0.4 0 
42.501 0.8 0 
43.7 4.15152 0 
47.9 7.28306 0 
42.4536 1.2 0 
44.4 5.20672 0 
43 3.14286 0 
42.3128 1.6 0 
47.2 7.33784 0 
50 7.85714 0 
43 3.71429 0 
45.1 6.30473 0 
42.3 2.2 0 
45.8 6.8351 0 
48.6 7.91515 0 
44.4 5.8 0 
41.8847 0.2 0 
41.9198 1 0 
46.5 7.39577 0 
43 4.28571 0 
42.0375 2 0 
43.7 5.31775 0 
42.3 3.30563 0 
47.2 7.99163 0 
44.4 6.39328 0 
41.6932 1.8 0 
43 4.85714 0 
45.8 7.45633 0 
50 8.57143 0 
49.3 8.58504 0 
41.3439 0.8 0 
41.2972 0.4 0 
48.6 8.60338 0 
41.3509 1.2 0 
41.6 2.4 0 
41.25 0 0 
43 5.42857 0 
41.2749 1.6 0 
47.9 8.62592 0 
42.3 4.41991 0 
41.6 2.93194 0 
44.4 6.98741 0 
45.1 7.51898 0 
43.7 6.48225 0 
41.6 3.46892 0 
47.2 8.65213 0 
45.8 8.08196 0 
41.075 2 0 
43 6 0 
40.7343 0.6 0 
50 9.28571 0 
41.6 4.0101 0 
40.792 1.4 0 
46.5 8.68149 0 
48.6 9.29791 0 
44.4 7.58321 0 
40.9 2.6 0 
42.3 5.53939 0 
41.6 4.55464 0 
40.7206 2.4 0 
43 6.57143 0 
45.8 8.71347 0 
47.2 9.32103 0 
40.4568 2.2 0 
40.9 3.63327 0 
40.254 1.2 0 
41.6 5.10169 0 
40.1929 0.8 0 
40.2405 1.6 0 
43.7 7.64848 0 
40.0971 0.4 0 
44.4 8.18153 0 
50 10 0 
40 0 0 
43 7.14286 0 
49.3 10 0 
45.1 8.74755 0 
40.1125 2 0 
48.6 10 0 
41.6 5.65043 0 
42.3 6.66061 0 
40.2 2.8 0 
47.9 10 0 
40.9 4.69041 0 
45.8 9.35233 0 
40.2 3.29518 0 
39.6701 1 0 
47.2 10 0 
44.4 8.78321 0 
43 7.71429 0 
41.6 6.2 0 
39.8372 2.4 0 
39.694 1.8 0 
40.2 3.79918 0 
39.4356 0.2 0 
46.5 10 0 
40.2 4.31053 0 
40.9 5.76188 0 
41.6 6.74957 0 
43.7 8.81991 0 
45.8 10 0 
43 8.28571 0 
39.1626 1.2 0 
39.2094 1.6 0 
39.5 3 0 
40.2 4.82776 0 
44.4 9.38908 0 
42.3 7.78009 0 
39.3972 2.8 0 
39.0478 0.8 0 
39.15 2 0 
39.2146 2.6 0 
38.901 0.4 0 
41.6 7.29831 0 
45.1 10 0 
40.2 5.34939 0 
39.5 3.9672 0 
38.75 0 0 
43 8.85714 0 
38.9501 2.4 0 
40.9 6.83812 0 
38.6674 1.4 0 
40.2 5.87396 0 
44.4 10 0 
41.6 7.84536 0 
38.606 2.2 0 
39.5 4.9672 0 
38.3929 0.6 0 
38.8 3.2 0 
40.2 6.4 0 
43 9.42857 0 
38.5876 2.8 0 
42.3 8.89437 0 
38.8 3.66388 0 
43.7 10 0 
41.6 8.3899 0 
38.1815 1.6 0 
38.8 4.13784 0 
38.1875 2 0 
38.0762 1.2 0 
40.2 6.92604 0 
40.9 7.90959 0 
39.5 5.98688 0 
38.8 4.6202 0 
37.908 0.8 0 
38.0595 2.4 0 
43 10 0 
41.6 8.93108 0 
37.7087 0.4 0 
38.8 5.10927 0 
40.2 7.45061 0 
38.0611 3.2 0 
38.1 3.4 0 
37.9547 3 0 
37.7017 1.8 0 
37.5 0 0 
38.8 5.60338 0 
37.7714 2.8 0 
37.443 1 0 
42.3 10 0 
39.5 7.01312 0 
40.2 7.97224 0 
38.1 4.31163 0 
41.6 9.46806 0 
38.8 6.10085 0 
37.508 2.6 0 
40.9 8.96673 0 
37.225 2 0 
37.1564 1.6 0 
40.2 8.48947 0 
38.8 6.6 0 
36.9953 0.2 0 
38.1 5.25449 0 
37.1656 2.4 0 
41.6 10 0 
36.9945 1.2 0 
37.3144 3.2 0 
37.4 3.6 0 
39.5 8.0328 0 
37.4 4.04077 0 
36.7732 0.8 0 
38.8 7.09915 0 
40.2 9.00082 0 
36.9491 2.8 0 
37.4 4.4891 0 
38.1 6.21608 0 
36.7483 2.2 0 
36.5198 0.4 0 
36.5593 1.4 0 
40.9 10 0 
38.8 7.59662 0 
37.4 4.94372 0 
40.2 9.50482 0 
37.4 5.40338 0 
36.25 0 0 
36.6653 3.4 0 
36.7058 3.6 0 
36.5602 3.2 0 
38.8 8.09073 0 
36.7 3.8 0 
39.5 9.0328 0 
36.2625 2 0 
37.4 5.86682 0 
38.1 7.18392 0 
36.2685 2.4 0 
36.0701 0.6 0 
36.3802 3 0 
36.134 1.6 0 
40.2 10 0 
36.7 4.67076 0 
37.4 6.33278 0 
38.8 8.5798 0 
35.9172 1.2 0 
36.121 2.8 0 
37.4 6.8 0 
35.643 0.8 0 
35.7154 1.8 0 
38.8 9.06216 0 
36.7 5.55647 0 
38.1 8.14551 0 
36.0058 3.6 0 
35.7826 2.6 0 
39.5 10 0 
37.4 7.26722 0 
35.799 3.2 0 
36 4 0 
35.3339 0.4 0 
36 4.42857 0 
38.8 9.53612 0 
36.7 6.45116 0 
37.4 7.73318 0 
35.2354 1 0 
36 4.85714 0 
35.3686 2.4 0 
35.3 2 0 
36 5.28571 0 
35.1141 1.6 0 
38.1 9.08837 0 
35.2874 2.8 0 
35 0 0 
38.8 10 0 
37.4 8.19662 0 
36 5.71429 0 
35.3002 3.6 0 
35.3345 3.8 0 
35.2028 3.4 0 
36.7 7.34884 0 
34.8439 1.2 0 
35.325 4 0 
35.4 4.4 0 
34.8846 2.2 0 
37.4 8.65628 0 
36 6.14286 0 
35.0311 3.2 0 
34.5624 0.2 0 
36 6.57143 0 
34.5169 0.8 0 
35.4 5.22519 0 
34.7799 3 0 
38.1 10 0 
37.4 9.1109 0 
34.4653 1.4 0 
36.7 8.24353 0 
36 7 0 
34.466 2.4 0 
34.3375 2 0 
35.4 6.02519 0 
34.4488 2.8 0 
37.4 9.55923 0 
34.5892 3.6 0 
36 7.42857 0 
34.1509 0.4 0 
34.65 4 0 
34.8 4.8 0 
34.0965 1.6 0 
36 7.85714 0 
34.8 5.19326 0 
34.2571 3.2 0 
37.4 10 0 
35.4 6.81008 0 
36.7 9.12924 0 
34.0407 2.6 0 
34.8 5.57644 0 
33.7626 0.6 0 
33.75 0 0 
36 8.28571 0 
33.7742 1.2 0 
34.8 5.95123 0 
33.7341 1.8 0 
35.4 7.58992 0 
34.8 6.3193 0 
33.9558 3.8 0 
36 8.71429 0 
33.975 4 0 
34.0731 4.4 0 
33.8733 3.6 0 
34.1583 4.8 0 
34.8 6.68233 0 
33.5609 2.4 0 
33.3945 0.8 0 
33.6055 2.8 0 
34.2 5.2 0 
33.7157 3.4 0 
36.7 10 0 
36 9.14286 0 
33.375 2 0 
34.8 7.04201 0 
33.4772 3.2 0 
35.4 8.37481 0 
34.2 5.9151 0 
34.8 7.4 0 
36 9.57143 0 
33.0439 1 0 
33.081 1.6 0 
32.9704 0.4 0 
34.8 7.75799 0 
33.157 3 0 
34.2 6.60082 0 
33.0159 2.2 0 
33.5208 4.8 0 
33.3 4 0 
36 10 0 
33.1528 3.6 0 
34.8 8.11767 0 
35.4 9.17481 0 
33.6 5.6 0 
32.7077 1.2 0 
34.2 7.2689 0 
34.8 8.4807 0 
33.6 5.9252 0 
32.7578 2.8 0 
32.5 0 0 
32.6535 2.4 0 
33.6 6.24536 0 
34.8 8.84877 0 
32.692 3.2 0 
33.6 6.56133 0 
32.3831 1.4 0 
34.2 7.9311 0 
35.4 10 0 
32.4125 2 0 
32.2755 0.8 0 
32.8871 4.8 0 
34.8 9.22356 0 
33.6 6.87394 0 
32.9869 5.2 0 
32.7578 4.4 0 
32.625 4 0 
32.5653 3.8 0 
32.1354 0.2 0 
33.0317 5.6 0 
33.6 7.18402 0 
32.2847 2.6 0 
32.4279 3.6 0 
34.8 9.60674 0 
34.2 8.59918 0 
32.0673 1.6 0 
33 6 0 
33.6 7.49243 0 
32.2071 3.4 0 
33.6 7.8 0 
34.8 10 0 
31.792 0.4 0 
33 6.57143 0 
33.6 8.10757 0 
31.9061 2.8 0 
34.2 9.2849 0 
31.7572 1.8 0 
31.9018 3.2 0 
32.2571 4.8 0 
31.6442 1.2 0 
32.4654 5.6 0 
31.744 2.4 0 
33.6 8.41598 0 
33 7.14286 0 
31.95 4 0 
31.4674 0.6 0 
33.6 8.72606 0 
31.699 3.6 0 
31.45 2 0 
33 7.71429 0 
34.2 10 0 
33.6 9.03867 0 
31.5146 3 0 
32.4 6.4 0 
31.25 0 0 
32.4 6.64623 0 
31.1593 0.8 0 
33.6 9.35464 0 
32.4 6.89749 0 
33 8.28571 0 
31.7874 5.2 0 
31.901 5.6 0 
31.1428 2.2 0 
31.6305 4.8 0 
32.4 7.15296 0 
31.0552 1.6 0 
31.95 6 0 
33.6 9.6748 0 
31.4529 4.4 0 
32.4 7.41178 0 
31.275 4 0 
31.0508 2.8 0 
30.8653 1 0 
31.107 3.2 0 
33 8.85714 0 
31.9183 6.4 0 
32.4 7.67312 0 
33.6 10 0 
31.1644 3.8 0 
32.4 7.93614 0 
30.8327 2.4 0 
30.9663 3.6 0 
30.6155 0.4 0 
32.4 8.2 0 
31.8 6.8 0 
33 9.42857 0 
30.5831 1.2 0 
31.3385 5.6 0 
32.4 8.46386 0 
31.8 7.22776 0 
31.0072 4.8 0 
30.4875 2 0 
30.6799 3.4 0 
31.4346 6.4 0 
32.4 8.72688 0 
30.5169 2.6 0 
33 10 0 
30.3104 1.4 0 
31.8 7.6849 0 
32.4 8.98822 0 
30.6 4 0 
32.4 9.24704 0 
31.8 8.15967 0 
30.3081 3.2 0 
30.0456 0.8 0 
30 0 0 
32.4 9.50251 0 
30.1923 2.8 0 
30.0447 1.6 0 
30.9 6 0 
30.7778 5.6 0 
30.6 5.2 0 
30.2303 3.6 0 
30.949 6.4 0 
32.4 9.75377 0 
31.2 7.2 0 
31.8 8.64033 0 
30.3869 4.8 0 
31.2 7.37817 0 
29.9198 2.4 0 
32.4 10 0 
30.9131 6.8 0 
31.2 7.56641 0 
29.7128 0.2 0 
29.7836 1.8 0 
30.1571 4.4 0 
31.2 7.76306 0 
31.8 9.1151 0 
29.8561 3 0 
31.2 7.96641 0 
29.925 4 0 
31.2 8.17481 0 
29.5243 1.2 0 
30.7917 7.2 0 
30.2186 5.6 0 
30.4615 6.4 0 
29.4405 0.4 0 
31.8 9.57224 0 
29.525 2 0 
31.2 8.38657 0 
29.7547 3.8 0 
31.2 8.6 0 
29.5055 3.2 0 
31.2 8.81343 0 
31.8 10 0 
29.7694 4.8 0 
29.4911 3.6 0 
29.1815 0.6 0 
30.6 7.6 0 
29.2664 2.2 0 
31.2 9.02519 0 
29.3308 2.8 0 
30.3792 7.2 0 
31.2 9.23359 0 
30.6 7.91767 0 
29.85 6 0 
29.9722 6.4 0 
29.0353 1.6 0 
31.2 9.43694 0 
28.934 0.8 0 
30.6 8.26052 0 
29.6609 5.6 0 
30.0126 6.8 0 
31.2 9.63359 0 
29.0053 2.4 0 
29.25 4 0 
29.1374 3.4 0 
31.2 9.82183 0 
29.4232 5.2 0 
30.6 8.6185 0 
28.75 0 0 
29.9629 7.2 0 
31.2 10 0 
28.6965 1 0 
30.6 8.9815 0 
29.1545 4.8 0 
28.7396 2.6 0 
29.4814 6.4 0 
28.5625 2 0 
30.6 9.33948 0 
28.6995 3.2 0 
30 8 0 
28.7491 3.6 0 
29.8269 7.6 0 
28.4673 1.2 0 
28.869 4.4 0 
30 8.14286 0 
29.1047 5.6 0 
30 8.28571 0 
30.6 9.68233 0 
29.5429 7.2 0 
30 8.42857 0 
28.4669 2.8 0 
28.2668 0.4 0 
30 8.57143 0 
28.575 4 0 
28.2447 1.4 0 
30 8.71429 0 
30.6 10 0 
30 8.85714 0 
29.625 8 0 
30 9 0 
28.9891 6.4 0 
29.1 6.8 0 
28.542 4.8 0 
30 9.14286 0 
29.6296 8.28571 0 
28.3376 3.8 0 
28.1847 3 0 
28.027 1.6 0 
28.8 6 0 
28.0897 2.4 0 
30 9.28571 0 
29.1195 7.2 0 
29.6404 8.57143 0 
30 9.42857 0 
28.5498 5.6 0 
30 9.57143 0 
29.6547 8.85714 0 
27.8241 0.8 0 
30 9.71429 0 
29.25 8 0 
27.8127 1.8 0 
29.2534 8.14286 0 
28.0046 3.6 0 
29.6703 9.14286 0 
29.0422 7.6 0 
30 9.85714 0 
29.2602 8.28571 0 
27.8907 3.2 0 
28.2555 5.2 0 
30 10 0 
29.2698 8.42857 0 
29.6846 9.42857 0 
29.9644 10.0356 0 
29.2816 8.57143 0 
28.4953 6.4 0 
29.9288 10.0712 0 
27.9 4 0 
29.2952 8.71429 0 
27.6 2 0 
28.6928 7.2 0 
27.5 0 0 
29.3098 8.85714 0 
29.6954 9.71429 0 
29.8831 10.1169 0 
29.325 9 0 
27.6007 2.8 0 
29.8373 10.1627 0 
27.9316 4.8 0 
28.875 8 0 
29.3402 9.14286 0 
27.4117 1.2 0 
29.7 10 0 
29.3548 9.28571 0 
29.7792 10.2208 0 
27.5826 3.4 0 
28.8917 8.28571 0 
29.3684 9.42857 0 
[...]
POINT_DATA 4280
SCALARS phi float 1
LOOKUP_TABLE default
-423539
-4612.94
-418180
-423517
-4196.47
-413512
-4551.76
-5203.2
-3816.29
-399814
-5169.03
-423046
-407260
-5044.4
-3437.63
-5670.11
-387777
-4087.32
-6309.04
-413500
-4910.84
-6436.49
-3085.28
-368388
-423124
-401093
-5570.39
-6422.96
-378511
-4677.82
-7081.41
-2746.65
-351548
-6403.61
-3532.46
-386332
-7916.22
-4450.64
-7989.83
-6232.71
-2421.12
-422453
-7054.58
-395889
-5198.41
-329011
-369760
-7937
-4113.77
-341630
-6067.06
-8763.13
-7882
-407348
-2121.89
-309781
-2899.34
-351559
-6732.37
-9979.5
-3801.52
-7698.03
-5740.04
-421511
-8514.79
-9792.02
-390631
-4565.96
-361731
-1824.49
-7518.95
-332506
-286434
-9563.55
-5435.08
-3369.36
-300783
-9331.9
-372895
-10663.2
-7210.43
-6125.41
-8091.93
-1564.6
-312614
-2209.38
-4952.8
-9067.26
-266974
-2985.79
-12387.7
-419821
-6919.85
-384569
-354167
-9942.07
-3690.07
-323566
-8802.79
-11768.6
-292723
-4530.03
0
-11259.5
-7517.33
-244909
-6510.41
0
-8509.46
-399592
-334996
-5264.73
-10743.6
-259833
-9293.39
-12689.8
0
-8228.86
-272834
-10348
-6139.03
-2729.94
-2799.89
-345152
-378711
-2710.85
-315410
-227111
-414926
-9940.67
-284304
-2836.71
-11331.2
-14944
-7959.47
-6846.49
-8738.89
-13804.8
-2804.77
0
-253674
-9671.81
-357933
-57937.9
-12962.3
-296045
-2881.19
-52915.1
-7686.13
-208138
-10371.5
-12112.4
-222266
-9402.45
-2764.35
-46133
-235375
-14710.6
-305273
-11558.1
-336819
-276791
-8298.56
-368177
0
-157979
-409024
-9191.38
-154310
-2693.58
-246748
-148256
-10975.6
-9827.3
-193586
-140585
-12688
-38170
-17367.2
-316407
-130437
-2391.53
-9037.2
-10705.4
-218381
-258442
-15753.8
-383362
-120637
-14611.8
-11390.9
-10415.4
-2066.85
-108877
-142.95
-295971
-266927
-179262
-13464.6
-29578
-9665.3
-191116
-323197
-240645
-203098
-357895
-10399.8
-97824.9
-12755.9
-16571
-393499
-1650.92
-213426
-10816.4
-276746
-11999.5
-85446.5
-10503.7
-224395
-14050.2
-333846
-169263
-11737.8
-21167.6
-189518
-982.074
-19330.6
-74094.6
-502.924
-257774
-17467.7
-231891
-281254
-11410.2
-11095.9
-12462.4
-16149
-310132
-208997
-61634.6
-375.544
-337023
-14836.5
-11591.7
-169018
-161123
-178435
-240427
-376728
-14030.3
-186448
-288354
-51875.2
-11824.4
-11794.7
-18091.1
-13640.1
-13145.3
-195706
-92.4506
-223521
-243315
-858.667
-12864.7
-345857
-15470.4
-201582
-41669.9
-267016
-169348
-156973
-12198
-20411.7
-287250
-12425.9
0
-183396
-18724.4
-13742.9
-208555
-316292
-247785
-33325.9
-12609.7
-17520
-7734.98
-16320.6
-342698
-163216
-158112
-167364
-12728.9
-155716
0
-210010
-15511.3
-12883.1
-194106
-289870
-173641
-229038
-25690.7
-19087.5
-14593.8
-1397.55
-244169
-177006
-14166.7
-264676
-212450
0
-17097.1
-12855.1
-159063
-181849
-20470.6
-13501.9
-164813
-155791
-280942
-19874.6
-4045.1
-15503.2
-13399.6
-242577
-19272.7
-181670
-196312
-18489.2
-207371
0
-170060
-308760
-15733.5
-13010.4
-17847.7
-157065
-157926
-158986
-14243.2
-221535
-157062
-9031.74
-182325
-2161.11
-17176.9
-158807
-276287
-16521.9
-230874
-8974.41
-160712
-12910.1
0
-203203
-13022.2
-15829.2
-168684
-176281
-8755.39
-158419
-1946.62
-153935
-15074.5
-246509
-158078
-9637.07
-185719
-13992
-9954.34
-151698
-10357.4
-8249.3
0
-157192
-10275.2
-221182
-256308
-12807.8
-190450
-10347.2
-170602
-7758.53
-10379.3
-152031
-2945.69
-154269
-1667.25
-147347
-2098.63
-10183.4
-150284
-197997
-145897
-11182.1
-145254
-9173.78
0
-156098
-9806.77
-140212
-4096.04
-11838.4
-9362.28
-1111.57
-178360
-157747
-200388
-9098.22
-136714
-11914.6
-143669
-258.168
-150400
-8632.28
-138969
-6276.29
0
-13171.9
-160318
-11079.8
-4124.49
-13446.5
-128796
-208257
-131622
-13679.6
-754.47
-127564
-13647.1
-144948
-8943.05
-13554.1
-131154
-158250
0
0
-13490.5
0
0
-140691
-135030
-181355
-293.859
-13131.6
-121426
-126708
-2143.89
-3616
-130712
-15471.8
-12202.6
-120432
-11706.5
-10011.8
-157859
-15405
-7348.36
-111400
0
-118559
-111255
-561.323
-126204
0
-109384
-4150.04
-14980.9
-130586
-138470
-3127.26
-113194
-107155
-14562.1
-5194.51
-1173.22
-103057
-17826.7
-150820
-17644
-121485
-109.988
-17428.6
-6911.67
-2026.13
-1010.87
-97419.1
-2304.96
-17187.8
-101470
-120.452
0
-1893.67
-16889.9
-116060
-91456.3
-107368
-94718
-2304.84
0
-16845.4
-1518.18
-107728
-17575.5
-88128.7
-97105.1
-112483
-13062.6
-19909.4
-862.575
-94882
-3520.31
-6650.29
-19158.6
-5096.4
-82041
-87928
-360.592
-3585.13
-80238
0
-84345.1
-19217
-751.293
-101743
-835.41
-20960.7
-76656.2
-85168.5
-103244
-2270.9
-72569.3
-74889.6
-4505.61
-6582.67
-7862.54
-81080.1
-2144
-1005.16
-21444.5
-9513.59
-8036.1
-21310.9
-66501.2
-366.637
-538.225
-21245.3
-87433.5
-66844.8
-7041.77
-21539
-2312.27
-66123.8
-22207.6
-85229.7
-23099.3
-65318.3
0
-10364.3
-4997.03
-74277.6
-3988.04
-59485.4
-26385.3
-75627.6
-19715.7
-59765.6
-16120.9
-3521.57
-11605.7
-64500.3
-63497.2
-21295
-53204.2
-10721.7
-53891.2
-699.927
-6609.11
-21844.9
-11488.4
-8221.37
-50549.6
-5200.99
-54450.1
-23695.1
-13805
-4968.46
-3269.09
-47333.4
-69949.6
-54522.1
-3895.55
-14650
-27264.3
-58991.6
-2333.76
-4425.28
-46947.2
-20135.9
-14631.6
-42343.6
-11994.3
-39286.4
-11517.3
-43600.8
-19784.7
-49336.7
-1040.09
-40553.9
-13289.2
-20903.9
-17498.2
-22296
-8040.91
-4734.32
-23690.2
-37584.7
-41527.6
-25295.7
-54492.9
-35154.8
-27652.8
-19610.5
-30540.3
-763.371
-30270.8
-15472.1
-11577
-17868.5
-30020.4
-38115.8
-45188.7
-33587.7
-30462.7
-18550.4
-30505.1
-27151.6
-7580.2
-39021.4
-26018.1
-20383.9
-27027.3
-38465
-29592
-30067.8
-1929.51
-26468.3
-36585
-35284.2
-37797.1
-4842.99
-54969.1
-37329.8
-29725.2
-20531.5
-90351.5
-37919.6
-48594.5
-84672.4
-37905.4
-19121.5
-414113
-41056.8
-38133
-22917.4
-10895.4
-27769.9
-37325.6
-77524.2
-206729
-37250.3
-23561
-78505.9
-20183.4
-3519.05
-36404.1
-21228.6
-215427
-36373.6
-31294.9
-26559.3
-36355.2
-34846.9
-23234.8
-22473.2
-19893.5
-101668
-37654.4
-10568.6
-36975.6
-34238
-36734.2
-1645.44
-31977.2
-18666.8
-54446.6
-18723.6
-35829.2
-14304.9
-31040.3
-18295.6
-22160.6
-259.525
-5545.38
-1305.28
-17145
-34341.6
-34925.5
-9525.2
-15162.2
-35579.8
-23501.2
-15220.3
-10811.3
-24358.4
-36018.8
0
-18542.8
-32940.4
-36213.7
-14847.6
-36162.3
-30537.9
-28747.3
-35918.2
-18069.5
-29267.2
-35569.5
0
-22339.5
-14828
-26940.7
-2071.77
-34891.7
-34442.4
-25118.6
-1099.92
-33299.9
-23048.3
-8098.62
-12095.8
-33091.4
-17902.5
-727.349
-31093.3
-34742.2
-12691.5
-7740.78
-27581.1
-25104
-21100.9
-35352.7
-12684.2
0
-24771.3
-10810.5
-35145.3
-6331.02
-1216.6
-564.288
-9806.61
-24430.8
-34294.3
-8.65009
-9775.96
-32931.5
-1465.09
0
-32041.9
-11013.8
0
-3610.29
-7949.37
-33531.6
-10914.6
-49.5868
-33981.2
-28457.3
-21277.9
-34393.8
-5100.19
-110.27
-373.255
-34511.7
-25180.3
-7547.37
-34597.9
-13823.7
-23418.2
-26746.7
-34389.1
-18809.1
-34144.4
-18016.7
-1052.47
-580.37
-33628.4
-33062.8
-4032.12
-36.9959
-32228.8
-6390.35
-7534.41
-27225.8
-31506.7
-1227.3
-30085.8
-120.098
-29246.9
-9265.75
-733.382
-28469.7
-1976.59
-417.769
-14325.7
-1580.76
-5104.26
-33228.4
-6170.16
-28061.9
0
-1386.81
-33779
-4356.48
-2018.59
-21557.3
-33819.6
-1232.29
-33316.1
-1580.14
-24563.1
-32176.1
-1679.8
-30582.7
-1347.21
-7961.74
-4030.99
-1085.07
0
-46.7151
-29243.2
-1379.47
-5923.48
-5110.07
-27337.4
-951.743
-1004.1
-1810.21
-29044.6
-17806.6
-24058.9
-115.971
-32092.3
-32444.1
-32842.1
-2366.11
-3134.12
-33017.3
-33230.8
-33201.1
-33199.8
-32931.8
-971.238
-32687.5
-32196.4
-31647.4
-10757.4
-1046.08
-30821.4
-23.7916
-30132.4
-6754.35
0
-4043.28
-520.637
-8193.61
-29457.9
-3572.4
-27254.4
-25162.4
-715.922
-2400.92
-1200.01
-952.463
-25641
-625.8
-585.19
-29809
-799.517
-178.173
-21274.7
-1140.89
-699.527
-32389.8
-31470.8
-31935.1
-32413.5
-32075.2
-232.484
-3364.17
-30908.2
0
-3711.09
-1786.19
-7764.06
-792.846
-943.165
-29876.4
-5862.23
-29861.9
-27544.6
-627.353
-820.309
-405.231
-383.653
-23562.3
-1128.02
-1304.04
-29609.4
-457.1
-94.733
-666.504
-2973.87
-5819.41
-180.748
-6225.03
-31639.4
-31875
-31441
-31816.9
-30898.7
-425.346
-31835.1
-957.939
-31590.5
-30463.1
-2080.63
-24678.7
-31441.1
-31074.6
-30161.4
-30836.9
-30420.1
-10888.1
-29060.9
-29973.7
-518.52
-5072.06
-228.27
-7.80632
-560.666
-1345.66
-192.001
-904.682
-584.793
-308.655
-2187.15
0
-2483.97
-5899.25
-1118.7
-258.029
-700.891
-691.756
-30278
-30735.1
-31114.9
-418.548
-20892.8
-30978.3
-30763.1
-540.775
-30210.9
-611.693
-64.7928
-30493.1
-10877.4
-42.5297
-26697.5
-1619.56
-29816.3
-346.471
-31013.8
-27567.3
-29115.8
-50.5697
-567.394
-4403.46
-4987.76
-2091.19
-129.273
-861.664
-1349.97
-97.9916
-22548.6
-1467.59
-8234.53
-31679.5
-378.148
-468.082
-1050.6
-8834.62
-30456
-30353.1
-30644.3
-30169.7
-30492.4
-260.589
-30409.7
-30045.9
0
-166.815
-29789.7
-771.397
-2011.43
0
-29306.8
0
-28974.5
-13803.3
-28463.2
-23851.2
-4426.73
-1692.54
-28148.4
-12.7808
-27695
-27475
-30136.2
-226.572
-414.498
-639.972
-1103.96
-1518.4
-29604.6
0
-31940.2
-267.999
-8052.8
-1717.42
-69.437
-29800.7
-29735.2
-1053.1
-602.878
-25497.9
-29489.2
-38.0543
-28785
-3941.7
-3296.57
0
-1940.7
-112.682
-27844.5
-6518.41
-160.334
-18.152
-885.338
-2555.5
-417.741
-804.393
-13272.1
-26869.9
-7148.23
0
-1468.29
-27170
-112.123
-26043.4
-31708.1
-33463.6
-20484.2
-10787
-29142.4
-1028.22
-29088
-1441.05
-28931.1
-301.639
0
-3506.48
-28824.5
-49.6794
0
-2235.31
-28393.8
-3977.53
-28048.2
0
-31697.9
-28580.6
-27442.6
-11699.7
-639.185
-6405.02
-230.861
0
-26974
-1257.86
-26305.9
-1232.71
0
-1.7245
-25825.4
-162.204
-25194.3
0
-515.559
-4307.16
-24795.4
-3284.01
-24287.1
-3305.83
-10.8868
-23355.9
-17086.8
-28219
-1492.95
-1987.44
-24045.6
0
-5306.96
-30372.1
-32772.1
-27702.2
-10665.4
-5770.88
-1965.84
-57.7754
-26964.9
-416.546
0
-86.5085
-962.092
-25839
-16644.5
-1724.16
-8860.81
-4710.79
-9.37059
0
-24568
-3018.3
-831.408
-30995.5
-1722.23
-9670.05
-9.94672
-23359.8
-18082
-26972.9
-287.846
0
-5174.72
-1936.82
-26736.1
-26543.9
-189.18
-26394.7
-235.321
-22385.4
-206.841
-26074.8
0
-5174.26
-700.626
-25464.8
-32579.6
-17112.4
-110.431
-19404.1
-24936.4
-14114.6
0
-2130.82
-131.006
-2749.96
-24182
-2685.66
-131.841
-4512.77
-32562.5
-8761.74
-1425.88
-23567.1
-34.868
-4748.28
-22785
-21031.3
-1285.34
-53.2933
-25634.1
-22192.2
-2277.74
-87.7437
-7341.88
-15594.3
-5668.59
-21476.4
0
-24805.3
-479.281
0
-408.859
-20989.5
-282.338
-22782.8
-29138.8
-2427.55
-20414.7
-23755.9
-7972.99
0
-302.814
-20095.9
-1122.52
-348.798
-4294
-2384.11
-31822.1
-22376.8
0
-14208.4
-24323.6
-189.41
-6143.21
-22294.4
0
-11706.8
-23972.1
-20906.8
-281.204
-14936.8
0
-641.917
-23611
-2404.65
-7197.09
-2086.67
-662.854
-23158.1
-3681.52
-1918.95
-19535.3
-26176.4
-501.959
-3895.99
-22703.8
-856.179
-78.1348
0
-527.603
-22003.3
-12926.3
-6114.14
-18404.3
-697.306
-2365.58
-21369
-352.962
-17793.9
-6519.91
-18030.6
-20548.1
0
-16967.1
-378.343
-26980.3
-133.604
-29868.5
-6565.25
-22374
-1729.47
-19849.4
0
-16244
-200.945
-3425.18
-19015.7
-2241.85
-956.3
-603.665
-11660.2
-15749.6
-21363.7
-45.2982
-18395.7
-18347.3
-224.17
-9691.3
-790.291
-15321.4
-23069
-17580.7
-28275
-21336.8
-20158.6
-62.1814
-6691.69
-5859.91
-17009.8
-2029.3
0
-15046.2
-20.4144
-1406.78
-2764.56
-604.456
-16367.8
-2999.26
-1212.67
-80.1818
-10152.1
-10593.3
-18674.5
-20476.2
-15937.8
-398.611
-14806.7
-1277.41
-4934.7
-20042.4
-20881
-1295.68
-11823.4
-27456.5
0
-407.307
-1077.44
-17122
-19540
-265.103
-14658.3
-5287.33
-13329.8
-1100.29
-23916.2
-6533.61
-19018.8
-1091.12
-855.392
0
0
-9491.18
-2550.07
-15078
-14515.8
-18300.9
-15657.1
-15084.6
-878.407
-18708.5
-213.741
-7939.88
-220.759
-17626.5
-18756
-16803.6
-616.111
-14410.5
0
-16806.3
-14385.6
-4645.27
-1661.28
-638.04
-29288.3
-16077.4
-5919.39
-18379.1
-8592.87
-14278
-17674.4
-823.052
-1913.35
-1435.91
-2155.1
-16882.2
-15244.6
-24177.4
-374.952
0
-642.296
-47.7699
-3801.53
-19997
-14536.3
-14132.5
-90.878
-1178.11
-393.612
-16441.4
-4111.32
-13752.8
-16775.5
-20782.2
-12280
-8.37714
-7631.47
-13921.8
-2055.43
-155.515
-13114.1
-15049.7
-4743.18
-2067
-895.221
-575.399
-1760.15
-16314.3
-14971.5
-6368.4
-1798.28
-8437.14
-12419.5
0
-21598.8
-13649.2
-1812.86
-15812.8
-169.086
-23559.2
-11875.6
0
-1505.84
-3548.97
-11817.1
-13433.6
-15279.9
-601.388
-6857.72
-1519.88
-13271
-13553.8
-20683.4
0
-14599.6
-1182.11
-1196.78
-1424.61
-15053.6
-378.262
-30414.5
-12793.4
-15004.6
-11945.5
-2783.4
-13937.8
-1194.75
-2485.4
-37280.5
-237.166
-32742.6
0
-3073.02
-320.492
-13168.8
-9908.86
-841.24
0
-12171.6
-12037.9
-2202.82
-6038.46
-29639.2
-13988.8
-10579.7
-17144.4
-27152.4
-12454.3
-851.104
-4975.89
-1875.52
-11408.8
-18874.8
-1102.13
0
-208.852
-11664.5
-27447.6
-506.29
-12822.8
-13119.5
-10486.6
-2590.31
-10810.4
-10952.3
-16800.4
-2935.77
-1509.57
-5369.81
-87.3652
-23982
-2938.36
0
-512.636
-9488.37
-2625.03
-12666.7
-25780.6
-10186.6
-2628.1
-5513.76
-3757.08
-7063.92
-837.277
-11455.3
-641.267
-8315.96
-2266.11
-9510.34
-12201.8
-1118.25
-8856.18
-86.0617
-1917.14
-211.362
-7900.5
-2267.15
-9563.41
-10393.5
-21395.8
-2185.28
-4678.2
-24317.2
-0.730745
-8795.04
-11698.1
-11868.1
-1862.46
-37127.5
-15067
-10009.4
-13065.4
-214.491
-11497.5
-1860.82
0
-3770.13
-8168.34
-11092
-13683.5
-725.077
-3390.63
-593.174
-13977.2
-1426.94
-18883.2
-8554.1
-22774.4
-10481.3
-13019.5
-3053.93
0
-4107.25
-0.505344
-1786.11
-1421.89
-8569.34
-9797.38
-10511.2
-2660.89
-981.908
-20903.1
-365.388
-16836.9
-9132.9
-1.83228
-7532.5
-29222.8
-6208.01
-400.838
-2216.33
-9715.14
-7185.78
-973.607
-1215.92
-250.436
-3879.25
-3528.24
-11973.4
-8418.61
-3872.23
-1455.64
0
-9473.64
-3518.86
-18510.9
-9295.46
-3509.29
-561.432
-7738.62
-1732.61
0
-14844
-2751.64
-5944.04
-3098.09
-2847.06
-6700.86
-8689.8
-3084.63
-9354.36
-15499.3
-8887.39
-10168.3
-7026.48
-85.2463
-551.425
-233.568
-8266.84
-3049.55
-2620.22
-38168
-1138.68
-11868.7
-2602.23
-1232.74
0
-8439.16
-6356
-13220
-8273.04
-22969
-2096.83
-210.852
-4340.69
-5863.44
-4790.17
-7926.14
-33798.8
-5666.93
-6972.91
-9459.18
-3953.61
-2074.03
-50685.2
-54112.5
-47811.7
-2572.3
-110.594
-45301
-58098.1
-678.205
-202.183
-7391.71
-11635.6
-3499.55
-5019.12
-881.079
-43136.6
-1549.44
-15.4517
-752.184
-62924.9
-7400.63
-41191.4
-29678.1
0
-5178.75
-1913.31
-1522.69
-6812.28
-39431.9
-5652.97
-2982.16
-6112.84
-6722.03
-37778
0
-18023.9
-4849.47
-2178.53
-6958.46
-10343.6
-4833.68
-6225.26
-1011.8
-36178.8
-7057.06
-4443.57
-14.6616
-26270.5
-2412.96
-6663.6
-641.702
-5932.83
-4422.13
-4733.5
-6522.9
-3564.58
-6349.42
-34598.2
-338.381
-4493.5
-3966.14
-5610.89
-983.607
-2112.31
-7413.45
-4352.56
-3611.89
-3938.96
0
-32962.3
-1008.1
-3420.6
-9080.08
-23051.8
-31281.4
-1814.26
-4999.18
-6005.42
-1792.4
-44593.6
-3386.86
-529.909
-59.4514
-29456.8
-294.338
-5509.66
0
-452.495
-5515.52
-2817.3
-3931.65
-27557.6
-4376.43
-5626.08
-5302.7
-14108.1
0
-25455
-1243.16
-3416.62
-2777.02
-20396.2
-504.67
-23264.9
-15910.1
-8048.42
-20854.8
-18476.5
-4869.61
-1221.34
-45.1104
-3764.71
-1475.77
-2176.98
-5211.13
-4360.07
-4413.02
-3372.86
-2131.39
-5747.06
-34847.9
-157.922
-284.312
-17879.9
-3158.67
0
-4303.09
-4767.09
-3776.72
-4771.65
-2642.48
-7037.5
-1532.8
-4248.41
-3487.71
-5814.52
-682.331
-1170.97
-2571.52
-4300.63
-5792.09
-3130.27
-141.041
-11001
-5367.52
-15803.6
-1485.04
-2914.17
-3284.5
-5336.64
-1597.01
-4839.07
-6211.26
-157.672
-3812.25
-50.3903
-3929.24
-1412.15
-4800.91
0
-4062.39
-726.916
-2442.33
-930.792
-27147.7
-4233.02
0
-13829.6
-923.829
0
-4186.47
-3315.99
-45224.9
-3648.02
-4389.37
-2461.26
-3558.65
-886.188
-1925.16
-5400.51
-2181.68
-253.519
-3308.09
-3503.78
-1855.42
-2807.62
-1747.64
-6248.75
-53.5084
-12202.6
-3257.55
-40061.7
-3342.18
0
-5774.6
-2835.96
-8529.37
-2146.51
-58500.2
-426.531
-65367.7
-691.471
-52820.5
-2308.92
-5215.86
-2089.93
-2774.1
-21071.5
-4737.25
-1954.21
-74234.7
-47703.8
-3021.89
-35224.2
-18912.4
-4574.25
-10650.1
-2097.32
-230.177
-1622.24
-391.987
-1094.36
-42667.1
-1812.67
0
-2696.06
0
-2392.87
-25383.6
-349.675
-37362
-914.058
-2675.36
-2031.79
-3859.77
-2350.21
-31596.1
-31127
0
-86224.1
-3284.67
-6748.28
-506.683
-4086.04
-1726.68
-6722.34
-6264.93
-1348.7
-344.096
-9372.16
-6228.39
-75.7382
-1388.27
-2323.84
-5691.59
-6558.1
-1228.15
-3093.25
-16277.9
-27290
-5646.76
0
-2088.04
-5032.7
0
-540.264
-909.656
-1324.86
-1523.07
-3553.09
-4978.08
-2152.36
-1950.82
-1430.14
-8148.45
-338.757
-57.3166
-656.708
-4296.66
-24059.8
0
-2308.65
-1866.43
-4232.16
-50226
-1682.44
-764.816
0
-1586.62
-7156.9
-3502.72
-3030.25
-2389.5
-7142.5
-6647.31
-21030.1
0
-96.6598
-3429.43
-1143.72
-1308.42
-12497.8
-1635.39
0
-209.806
-711.412
-6046.29
-4982.42
-730.536
-1214.02
-1561.64
-366.651
-1553.6
-2682.35
-142.201
-5354.76
-741.747
-39585.2
-18484
-6176.16
0
-1404.47
-2602.7
-2603.36
-870.492
-285.287
-4582.04
-911.976
-1206.72
-22443.8
0
-1033.54
-7631.29
-99.0986
-1880.18
0
-7605.67
-16092.8
-7116.81
-1159.8
-956.527
-7079.36
-886.4
-542.703
-3748.1
-5382.87
-9517.27
-26408.2
-503.513
-6505.25
0
-2184.53
-249.851
-1801.22
-6459.15
-30944.3
-1670.27
-5801.6
-3721.67
-835.083
-30256.3
-14091
-692.263
-923.598
-5744.88
-273.006
-2885.87
0
-1151.86
-34299.8
-5013.47
0
-19.9665
-4618.93
0
-826.421
-38132.5
-4945.7
0
-1843.5
-380.16
-42016.4
-1204.35
-63702.2
-67480.7
-60108.4
-12208.4
-679.904
-45711.6
-71354.7
-56536.5
-675.217
-49401.5
-52976.8
-623.101
-4159.44
-404.069
-75633.3
-1081.21
-58.6559
-8011.44
-49982
-366.792
-80112.8
-23969.6
-517.358
-4081.13
0
-7472.68
-2042.04
-7167.28
-85274
-3992.93
-6836.91
-459.139
-3269.96
0
-10636.9
-44669.1
-90753.3
0
-522.499
-1512.06
-557.085
-6104.33
-2021.99
-2714.47
-1101.12
0
-3183.53
-455.872
-97265
-39607.9
-3389.45
-356.184
-249.535
-5283.46
-39.7928
-2388.42
-9157.38
-15.1525
-1274.66
-380.698
-504.086
-18365.9
-204.575
-260.251
-104278
-301.846
-1243.33
-35189.8
-8451.61
0
-8429.83
-2298.97
0
-4393.23
-7910.72
-39.3909
-7877.58
-5316.35
-85.9475
-129.395
-7267.91
-2896.45
-7926.27
-24123.5
-7226.67
-244.128
-31002.1
-231.617
-112790
-1569.53
-145.872
-6527.97
-1445.66
-3465.29
-6476.01
-1437.14
-134.245
-140.713
-985.017
-5697.61
-1914.32
0
-27388.6
-645.333
-13886
-1485.21
-6766.46
-661.984
-5633.8
0
-126.845
-2421.7
-4321.53
-4794.47
-159.681
-117.275
-96.7542
-2545.05
-74.5727
-122.131
-23972.7
-3675.38
-56.5696
-4718.36
-8802.61
0
-873.441
-32977.5
-777.811
-3863.12
-8241.9
-5805.43
-3847.73
-24.998
-2035.77
-1053.56
-7579.82
-52099.2
-21031.4
0
-3760.64
0
-6815.63
-804.454
0
-10325.1
0
0
-1689.91
0
-4900.56
-2899.36
-42273.4
-42.2438
0
-204.205
-5956.74
-1285.96
-582.177
-18261.9
-8877.57
-1665.71
-42122.1
-2805.36
-1568.16
0
-336.716
-353.632
-51590.3
-1183.82
0
-5020.74
-9200.66
0
0
-9187.96
-15886.4
-4155.33
-7500.72
-8641.18
-2729.49
0
0
-2002.9
-8617.4
-60746.1
-7975.16
0
-428.117
-7944.44
-962.637
-69819.1
-13.8908
-1367.17
-4037.78
-7517.73
-7207.89
-33501.9
-309.142
-1909.49
-13658.3
-7167.05
-79101.6
0
0
-3455.31
-6345
0
-1394.75
-26524.7
-6291.86
-89080.8
-3051.83
-1218.45
-802.202
-2949.65
-5402.8
-11756.5
0
0
0
-1083.38
-286.801
0
-5335.68
-38.9194
0
-2883.54
0
-26160.5
-9520.84
-74.2862
0
-1854.67
0
-4409.07
-7577.99
-111.643
-1136.27
-100434
-8948.16
-2493.41
-5330
-9981.54
-417.989
-31500.9
-6603.57
-4327.84
-8270.59
-2119.48
-857.058
-11169.2
-179.054
-7485.28
-2349.1
-3404.24
-4.94232
-21.7763
0
-602.197
-50370.9
-274.616
-8479.1
-22.163
-19979.2
-6598.59
-3311.46
-36504.2
-45867.9
-4009.72
-140.989
-114051
-645.114
-441.571
-5626.61
-1917.2
-2440.59
-7086.13
-1304.5
-542.482
0
-102.761
-84.9824
-41366.4
-9844.96
-3651.44
-9851.99
-1190.68
-613.764
-41916.6
-98.9272
-9268.37
-97.2437
-9276.86
-114.614
0
0
-2342.75
-8587.95
-4597.83
-37234.8
-82.9487
-8592.05
-5864.27
-3599.21
-14859.4
0
-5920.67
-7798.65
-1516.88
-479.044
-7796.49
-47208.2
-7688.65
-189.855
-266.295
-33187.3
-1578.23
-6907.26
-126.459
-17.5888
-3554.6
-6895.84
-40.2865
-15568.1
-241.688
-52742.7
0
-4849.7
-5929.37
-665.879
-29534.1
-131120
-672.435
-1486.06
0
-1197.72
-48.5335
-5905.79
-2388.85
-327.324
-186.438
-58182.4
-159.424
-10709
-26876
-493.546
-4892.04
-244.454
-25990.5
-699.091
-2552.87
-336.655
-3966.39
-412.408
0
-6336.61
-87.8049
-63714.1
-4854.18
-875.939
-403.058
-16.9341
-411.956
-12817.2
-618.226
0
-905.851
-22802.8
-20.0778
-69223.7
-3835.04