# vtk DataFile Version 3.0
File generated from DClib
ASCII

DATASET UNSTRUCTURED_GRID
POINTS 1909 float
50 0 0 
48.75 0 0 
50 1.66667 0 
47.5 0 0 
50 3.33333 0 
46.25 0 0 
50 5 0 
45 0 0 
43.75 0 0 
50 6.66667 0 
43 2 0 
42.5 0 0 
50 8.33333 0 
43 4.66667 0 
41.25 0 0 
41.075 2 0 
50 10 0 
40 0 0 
43 7.33333 0 
39.15 2 0 
38.75 0 0 
43 10 0 
37.5 0 0 
37.225 2 0 
36.25 0 0 
36 4 0 
35.3 2 0 
36 5 0 
35 0 0 
35.325 4 0 
36 6 0 
36 7 0 
34.65 4 0 
36 8 0 
33.75 0 0 
33.975 4 0 
36 9 0 
33.375 2 0 
33.3 4 0 
36 10 0 
32.5 0 0 
32.625 4 0 
33 6 0 
31.95 4 0 
33 7.45455 0 
31.45 2 0 
31.25 0 0 
31.95 6 0 
33 8.79545 0 
31.275 4 0 
33 10 0 
30.6 4 0 
30 0 0 
30.9 6 0 
29.925 4 0 
29.525 2 0 
29.85 6 0 
29.25 4 0 
28.75 0 0 
30 8 0 
30 8.45455 0 
28.575 4 0 
29.625 8 0 
30 8.90909 0 
28.8 6 0 
30 9.25 0 
29.782 8.90909 0 
30 9.59091 0 
29.9487 9.59091 0 
29.25 8 0 
29.7462 9.25 0 
30 9.79545 0 
29.897 9.59091 0 
29.564 8.90909 0 
29.9547 9.79545 0 
29.3462 8.45455 0 
29.84 9.59091 0 
30 10 0 
29.8975 9.79545 0 
29.9882 10 0 
29.9902 10.0098 0 
29.7827 9.59091 0 
29.9765 10 0 
29.9804 10.0196 0 
29.9667 10.0098 0 
29.9591 10 0 
29.9686 10.0196 0 
29.9659 10.0341 0 
29.9569 10.0196 0 
29.9418 10 0 
29.9395 10.0196 0 
29.9515 10.0485 0 
29.932 10.0098 0 
29.9424 10.0341 0 
29.8241 9.79545 0 
29.7181 9.59091 0 
29.9166 10 0 
29.9397 10.0485 0 
29.9222 10.0196 0 
29.9279 10.0485 0 
29.9305 10.0695 0 
29.8914 10 0 
29.9077 10.0341 0 
27.9 4 0 
29.897 10.0196 0 
29.9106 10.0485 0 
29.8817 10.0098 0 
29.907 10.0695 0 
29.8933 10.0485 0 
29.9095 10.0905 0 
29.8719 10.0196 0 
27.6 2 0 
29.8556 10 0 
29.8978 10.0905 0 
29.6531 9.59091 0 
29.3437 8.90909 0 
27.5 0 0 
29.8681 10.0485 0 
29.886 10.0905 0 
29.8574 10.0341 0 
29.4839 9.25 0 
29.8723 10.0695 0 
29.7289 9.79545 0 
29.836 10.0196 0 
29.8687 10.0905 0 
29.8197 10 0 
29.8797 10.1203 0 
29.843 10.0485 0 
29.8513 10.0905 0 
29.81 10.0098 0 
29.8561 10.1203 0 
29.8002 10.0196 0 
29.8221 10.0695 0 
29.8072 10.0485 0 
29.8262 10.0905 0 
29.5782 9.59091 0 
29.8498 10.1502 0 
29.7695 10 0 
29.7858 10.0341 0 
29.838 10.1502 0 
29.8215 10.1203 0 
29.8011 10.0905 0 
29.8262 10.1502 0 
29.7714 10.0485 0 
28.875 8 0 
29.75 10.0196 0 
29.8089 10.1502 0 
29.7654 10.0905 0 
29.7193 10 0 
29.7916 10.1502 0 
29.7505 10.0695 0 
29.8079 10.1921 0 
29.7713 10.1203 0 
29.7096 10.0098 0 
29.6047 9.79545 0 
29.503 9.59091 0 
29.7213 10.0485 0 
29.7665 10.1502 0 
29.6999 10.0196 0 
29.7844 10.1921 0 
29.7296 10.0905 0 
29.6856 10.0341 0 
29.7414 10.1502 0 
29.7497 10.1921 0 
29.6503 10 0 
29.7661 10.2339 0 
29.6712 10.0485 0 
29.6999 10.1203 0 
29.7543 10.2339 0 
29.6796 10.0905 0 
29.7057 10.1502 0 
29.7425 10.2339 0 
29.1235 8.90909 0 
29.6309 10.0196 0 
29.6504 10.0695 0 
29.4146 9.59091 0 
29.7252 10.2339 0 
29.6996 10.1921 0 
29.6701 10.1502 0 
29.7079 10.2339 0 
29.6296 10.0905 0 
29.5813 10 0 
29.6023 10.0485 0 
29.5716 10.0098 0 
29.6828 10.2339 0 
29.7086 10.2914 0 
29.2101 9.25 0 
29.562 10.0196 0 
29.6201 10.1502 0 
29.6578 10.2339 0 
29.4428 9.79545 0 
29.5999 10.1203 0 
29.6849 10.2914 0 
29.6283 10.1921 0 
29.5477 10.0341 0 
29.3259 9.59091 0 
29.5608 10.0905 0 
29.5335 10.0485 0 
29.6221 10.2339 0 
29.6503 10.2914 0 
29.5702 10.1502 0 
29.4881 10 0 
29.5128 10.0695 0 
29.6511 10.3489 0 
29.5866 10.2339 0 
29.6392 10.3489 0 
29.4689 10.0196 0 
29.6002 10.2914 0 
29.6273 10.3489 0 
29.4921 10.0905 0 
29.61 10.3489 0 
29.5286 10.1921 0 
29.5016 10.1502 0 
29.5368 10.2339 0 
29.5926 10.3489 0 
29.4405 10.0485 0 
29.2199 9.59091 0 
29.4626 10.1203 0 
29.3949 10 0 
28.9 8.90909 0 
29.5676 10.3489 0 
29.5291 10.2914 0 
29.3853 10.0098 0 
28.6923 8.45455 0 
29.487 10.2339 0 
29.5426 10.3489 0 
29.3758 10.0196 0 
29.5734 10.4266 0 
29.4331 10.1502 0 
29.3993 10.0905 0 
28.5 8 0 
29.3617 10.0341 0 
29.5496 10.4266 0 
29.5071 10.3489 0 
29.2327 9.79545 0 
29.3475 10.0485 0 
29.1136 9.59091 0 
29.4187 10.2339 0 
29.5148 10.4266 0 
29.4716 10.3489 0 
29.3918 10.1921 0 
29.3271 10.0695 0 
29.4298 10.2914 0 
29.2714 10 0 
29.3406 10.1502 0 
28.9208 9.25 0 
29.3066 10.0905 0 
29.4648 10.4266 0 
29.422 10.3489 0 
29.4958 10.5042 0 
29.2524 10.0196 0 
27.75 6 0 
29.3504 10.2339 0 
29.4837 10.5042 0 
29.4718 10.5042 0 
29.2774 10.1203 0 
29.4543 10.5042 0 
29.3724 10.3489 0 
29.2244 10.0485 0 
29.4369 10.5042 0 
29.3938 10.4266 0 
28.9853 9.59091 0 
29.2481 10.1502 0 
28.6766 8.90909 0 
29.4119 10.5042 0 
29.2934 10.2914 0 
27.225 4 0 
29.148 10 0 
29.2582 10.2339 0 
29.1837 10.0905 0 
29.3869 10.5042 0 
29.1385 10.0098 0 
29.3044 10.3489 0 
29.1291 10.0196 0 
29.2072 10.1921 0 
29.3514 10.5042 0 
29.1152 10.0341 0 
29.3929 10.6071 0 
29.2949 10.4266 0 
29.1013 10.0485 0 
29.3686 10.6071 0 
29.316 10.5042 0 
29.2364 10.3489 0 
28.9623 9.79545 0 
29.1257 10.1502 0 
29.1662 10.2339 0 
29.0811 10.0695 0 
28.8566 9.59091 0 
29.3336 10.6071 0 
29.2666 10.5042 0 
29.0609 10.0905 0 
28.9875 10 0 
29.2835 10.6071 0 
29.1448 10.3489 0 
29.0321 10.1203 0 
29.2173 10.5042 0 
29.1098 10.2914 0 
28.125 8 0 
28.9688 10.0196 0 
29.1594 10.4266 0 
28.611 9.25 0 
29.29 10.71 0 
28.4486 8.90909 0 
29.0443 10.2339 0 
29.0033 10.1502 0 
29.2777 10.71 0 
28.9413 10.0485 0 
29.2128 10.6071 0 
29.2655 10.71 0 
29.1497 10.5042 0 
29.2478 10.71 0 
28.7003 9.59091 0 
29.0533 10.3489 0 
29.2303 10.71 0 
28.9629 10.1921 0 
28.9013 10.0905 0 
29.2051 10.71 0 
29.0822 10.5042 0 
29.1801 10.71 0 
28.827 10 0 
29.1144 10.6071 0 
28.8177 10.0098 0 
28.9225 10.2339 0 
28.8085 10.0196 0 
29.1447 10.71 0 
28.7949 10.0341 0 
28.8443 10.1502 0 
28.977 10.4266 0 
28.9322 10.3489 0 
29.1094 10.71 0 
28.7813 10.0485 0 
28.9912 10.5042 0 
29.1562 10.8438 0 
28.5436 9.59091 0 
28.7615 10.0695 0 
28.8669 10.2914 0 
29.1313 10.8438 0 
28.6184 9.79545 0 
29.0602 10.71 0 
28.2207 8.90909 0 
28.7418 10.0905 0 
28.0378 8.45455 0 
28.9798 10.6071 0 
29.0958 10.8438 0 
29.0112 10.71 0 
28.9005 10.5042 0 
28.7136 10.1203 0 
28.7644 10.2339 0 
28.8113 10.3489 0 
29.0454 10.8438 0 
28.6223 10 0 
28.6854 10.1502 0 
28.2746 9.25 0 
28.9441 10.71 0 
28.6042 10.0196 0 
27.75 8 0 
28.9747 10.8438 0 
28.6459 10.1921 0 
28.5773 10.0485 0 
29.0225 10.9775 0 
28.3532 9.59091 0 
28.7804 10.5042 0 
28.736 10.4266 0 
28.8772 10.71 0 
29.0097 10.9775 0 
28.9971 10.9775 0 
28.799 10.6071 0 
28.9791 10.9775 0 
28.5384 10.0905 0 
28.6064 10.2339 0 
28.6543 10.3489 0 
28.9611 10.9775 0 
28.8769 10.8438 0 
27.9867 8.90909 0 
26.25 0 0 
28.9358 10.9775 0 
28.7871 10.71 0 
28.9106 10.9775 0 
28.6607 10.5042 0 
28.4177 10 0 
26.55 4 0 
28.552 10.2914 0 
28.483 10.1502 0 
28.4087 10.0098 0 
28.8751 10.9775 0 
28.3998 10.0196 0 
28.3866 10.0341 0 
28.8399 10.9775 0 
28.6974 10.71 0 
28.3735 10.0485 0 
28.1625 9.59091 0 
28.7436 10.8438 0 
28.4976 10.3489 0 
28.3543 10.0695 0 
28.791 10.9775 0 
28.4052 10.2339 0 
28.3352 10.0905 0 
28.8519 11.1481 0 
28.1869 9.79545 0 
28.5607 10.6071 0 
28.5053 10.5042 0 
28.7423 10.9775 0 
28.8258 11.1481 0 
28.308 10.1203 0 
28.5787 10.71 0 
27.904 9.25 0 
28.7893 11.1481 0 
28.424 10.4266 0 
27.7528 8.90909 0 
28.2807 10.1502 0 
28.6758 10.9775 0 
27.375 8 0 
28.7383 11.1481 0 
28.1619 10 0 
28.5649 10.8438 0 
28.2425 10.1921 0 
28.6096 10.9775 0 
28.1444 10.0196 0 
28.298 10.3489 0 
28.4605 10.71 0 
26.7 6 0 
27.9315 9.59091 0 
28.3503 10.5042 0 
28.6676 11.1481 0 
28.1187 10.0485 0 
28.2042 10.2339 0 
28.5207 10.9775 0 
28.0813 10.0905 0 
28.6814 11.3186 0 
27.3818 8.45455 0 
28.6679 11.3186 0 
28.1516 10.2914 0 
28.5703 11.1481 0 
28.6544 11.3186 0 
28.6358 11.3186 0 
27.5109 8.90909 0 
28.3072 10.71 0 
28.6173 11.3186 0 
28.2524 10.6071 0 
28.4322 10.9775 0 
28.028 10.1502 0 
28.5915 11.3186 0 
28.0989 10.3489 0 
28.33 10.8438 0 
28.5658 11.3186 0 
28.153 10.5042 0 
27.9061 10 0 
27.8975 10.0098 0 
28.5303 11.3186 0 
28.4384 11.1481 0 
27.7002 9.59091 0 
27.889 10.0196 0 
27.8765 10.0341 0 
28.4949 11.3186 0 
28.3154 10.9775 0 
27.9532 10.2339 0 
27.8639 10.0485 0 
28.0276 10.4266 0 
28.1544 10.71 0 
27.8457 10.0695 0 
27.4909 9.25 0 
28.4463 11.3186 0 
27 8 0 
27.8275 10.0905 0 
28.3979 11.3186 0 
27.8015 10.1203 0 
27.6542 9.79545 0 
25.675 2 0 
28.1991 10.9775 0 
27.2691 8.90909 0 
27.9563 10.5042 0 
28.4682 11.5318 0 
28.2625 11.1481 0 
27.7755 10.1502 0 
28.3322 11.3186 0 
27.8502 10.3489 0 
28.4401 11.5318 0 
25.875 4 0 
27.7391 10.1921 0 
28.4019 11.5318 0 
28.0268 10.8438 0 
28.2668 11.3186 0 
27.9602 10.71 0 
28.3498 11.5318 0 
27.4223 9.59091 0 
27.7026 10.2339 0 
27.5927 10 0 
28.0486 10.9775 0 
27.8616 10.6071 0 
27.5762 10.0196 0 
28.1794 11.3186 0 
28.2786 11.5318 0 
27.5519 10.0485 0 
27.6524 10.2914 0 
28.0319 11.1481 0 
27.7108 10.5042 0 
27.5167 10.0905 0 
27.0169 8.90909 0 
28.0924 11.3186 0 
27.6021 10.3489 0 
27.8988 10.9775 0 
28.1818 11.5318 0 
27.7667 10.71 0 
26.625 8 0 
28.255 11.745 0 
27.4664 10.1502 0 
28.2402 11.745 0 
28.2256 11.745 0 
28.2059 11.745 0 
27.978 11.3186 0 
26.7234 8.45455 0 
27.0259 9.25 0 
27.5342 10.4266 0 
28.1863 11.745 0 
27.1442 9.59091 0 
28.0516 11.5318 0 
28.1598 11.745 0 
27.3959 10.2339 0 
28.1334 11.745 0 
27.2793 10 0 
27.2714 10.0098 0 
27.2635 10.0196 0 
27.7086 10.9775 0 
27.6431 10.8438 0 
28.0975 11.745 0 
27.8643 11.3186 0 
27.4661 10.5042 0 
27.2518 10.0341 0 
27.2401 10.0485 0 
28.0617 11.745 0 
26.7648 8.90909 0 
27.5255 10.71 0 
27.7353 11.1481 0 
27.2231 10.0695 0 
28.0133 11.745 0 
27.2061 10.0905 0 
27.8791 11.5318 0 
27.2986 10.3489 0 
27.1818 10.1203 0 
27.9651 11.745 0 
27.3758 10.6071 0 
27.0077 9.79545 0 
27.7174 11.3186 0 
27.1576 10.1502 0 
25 0 0 
27.5193 10.9775 0 
27.9003 11.745 0 
27.1236 10.1921 0 
26.25 8 0 
27.9939 12.0061 0 
25.65 6 0 
27.8359 11.745 0 
26.8136 9.59091 0 
27.0896 10.2339 0 
27.9626 12.0061 0 
27.2853 10.71 0 
25.2 4 0 
27.5713 11.3186 0 
27.9218 12.0061 0 
26.4998 8.90909 0 
27.167 10.5042 0 
27.6541 11.5318 0 
27.0427 10.2914 0 
27.7503 11.745 0 
26.9033 10 0 
27.8677 12.0061 0 
26.8882 10.0196 0 
26.8659 10.0485 0 
26.9958 10.3489 0 
27.2836 10.9775 0 
27.6652 11.745 0 
27.3609 11.1481 0 
27.7955 12.0061 0 
26.499 9.25 0 
[...]
POINT_DATA 1909
SCALARS phi float 1
LOOKUP_TABLE default
-1.74481e+06
-1.17487e+06
-304862
-795857
-312653
-707672
-430993
-420317
-335828
-651444
-2.54534e+06
-178388
-2.16467e+06
-247222
-115101
-1.22384e+06
-3.93489e+06
-45794.9
-444965
-873393
-10605.8
-2.83392e+06
6174.5
-615792
14600
-3.56925e+06
-430419
-54227.6
8581.42
-2.50427e+06
-88615.3
-149843
-1.78159e+06
-271072
972.099
-2.01982e+06
-1.01328e+06
-304717
-1.51984e+06
-1.66357e+06
-5386.45
-1.73302e+06
-46350.7
-1.32027e+06
-108800
-227718
-12138.3
-30426.3
-438443
-1.51855e+06
-1.13325e+06
-1.17111e+06
-8346.48
-29829.6
-1.36366e+06
-191202
-36576.4
-1.06807e+06
-4164.83
-68.3704
-608.056
-1.26163e+06
-13422.9
-2892.83
-45983.9
-14923.7
-32336.5
351.748
-21851.6
-15906.3
-23612.5
-19390.3
-12348.9
-30817.1
-13197.2
-70312.1
-9756.13
-91758.4
-14770
-1601.12
-52211.3
-9592.73
-4922.79
-122251
6732.63
-5256.01
-72481.4
-36007
-6565.13
-22582
-13192.6
-3620.46
4203.28
-3261.55
-16502.5
-7914.09
-19327.2
-2368.82
-12006.1
-1878.51
-7017.06
-48106.9
-6325.11
-1.0058e+06
-11687.7
-3105.33
3290.01
-4964.5
-3387.85
-4393.86
-5405.85
-192480
-39269.5
-5065.93
-8312.53
-30783.1
178.402
-5789.08
-5325.88
-5596.52
-22296.3
-7091.36
-18165.5
-5754.51
-7223.02
-65611.7
-11214.9
-5066.22
-6060.31
1857.61
-12967.8
-1785.32
-8951.77
-6571.34
-7837.46
-7210.22
-13885.3
-52170
-3371.58
-17739.9
-13564
-5979.85
-14286.3
-3972.61
-21835.2
-2074.62
-17393.1
-8120.3
-66059.7
-12925.4
-8046.28
-28232.4
-12284.1
726.674
-19733.6
-8495.49
-4779.01
-14780.9
173.029
-27434.8
-6030.28
-868.299
-10377.8
-24591.4
-51591.9
-27748.5
-1886.99
-10670.9
-33269.3
-7574.17
-11224.3
-25352
-31569.7
-133.285
-5206.1
-7698.45
-29567.8
-19845
-7455.65
-21802.9
-4451.52
-56358.2
-2304.32
112.918
-24376.3
-45838
-23799.4
320.075
-8913.87
-17161.5
-21869.6
-8476.6
-41580.7
-14328.3
377.995
-9861.67
-5713.76
-192.46
-17920
-35592
-5964.99
-44346.3
-2174.09
-37879.8
-11808.8
-44554.3
169.381
-28050.1
-33895.2
-2441.79
-38822.6
-10244.1
-7320.07
-11454.5
-28638.6
-371.018
-9246.28
-5643.48
-48897.3
-32278.2
-31533.9
-19824.4
32.0412
-72546.1
-6988.01
-22239.8
25.6245
-54490.9
-4251.06
-3355.87
-26139.7
265.29
-48527.4
-23294.7
-26505.7
244.12
-12826.8
-7878.73
-40892.1
-15588.9
-7720.93
-243.119
-12598.7
-40760.3
-6161.99
-26293.1
-724.458
-32036.6
-15391.3
-39917.8
43.989
-55675
-5200.84
-46398.5
-35039.3
-3204.94
-39837.5
-9977.27
96.7516
-29393.3
-23242.1
-12670.2
-3133.59
-34703.8
-32345.3
-8935.19
-1.20506e+06
-52306.1
-6878.31
-1100.53
-23123.9
24.1584
-9560.76
19.7285
-6342.79
-24724.3
66.8984
-51335.5
-16092.2
76.337
-45986.6
-17323.7
-6257.07
-35562.3
-4780.65
-4526.62
94.5175
-18866.2
-39491
-18264.4
34.9757
-46728.2
-32500.9
-7575.37
-1134.5
-12836.5
-8092.46
-29467.3
-6.33022
-11435.9
-29893.3
-34811.4
-34790.8
-7854.37
-1654.01
-40785.6
3.65285
-25948.6
-31201
-13429.8
-36262.4
-19076
-5662.36
-27594.8
-5101.15
-244.81
-31668
-9749.76
-23919.9
-65298.5
-20633
-31.5219
-4791.07
-25.2886
-27238.1
-46.2999
-2172.1
-10066.3
-8365.28
-20568.5
-22.101
-10473.7
-47285.7
-28639.2
-81.0628
-8613.16
-44558.5
-49730.1
-23395.8
-36972.4
-40.4937
-73111
-16693.8
-41147.9
-17736.1
-7713.86
-415.2
-7141.19
-5986.46
-37303.8
-61275.4
-484.382
-34247.5
-20096.7
-40.2755
-32595.9
-33274.7
-2468.47
-83.5494
-36827.2
-28801.3
-9521.66
-10160.7
-15049.7
-44748.5
-35537.9
-13668.8
-43058.7
-196.28
-3022.15
-11245.7
-34132.7
-29076.5
-36022.9
-10336.9
-41059.2
-16357.1
-32342.4
-7102.27
-84267.3
-977546
-7634.23
-763.013
-31.6957
-38463.6
-30.4519
-83.9255
-29926.2
-11867.9
-80.5727
-42021.7
-24479.7
-7215.98
-194.836
-34904.9
-3274.61
-181.133
-53787.8
-68701.2
-12376
-11635.6
-26527.3
-52833.7
-436.1
-13045.7
-39160.1
-51182.1
-12009.4
-37428.7
-404.706
-30142.9
-34701.6
-48593.1
-82605.9
-19519.5
-1172.82
-22206.9
-39.7471
-9245.43
-9558.18
-64361.6
-41227
-8550.05
-44804.1
-104.932
-1237.65
-24387.3
-246.209
-46023.8
-70824.1
-56639.2
-3763.05
-39715.3
-45467.4
-55600.3
-36050.4
-12095.8
-44311.9
-13544.2
-17409.3
-558.11
-53531
-4305.83
-16018.7
-42091.1
-15737.5
-117035
-45.278
-50033.4
-33613.1
-57389.2
-41.3349
-98.5319
-38655.5
-18718.8
-1427.03
-94.1868
-10086.1
-9461.01
-213.763
-44927.4
-45147
-36957.6
-205.644
-34255.8
-448.772
-93182.4
-238796
-13578.4
-37470.1
-10467.6
-61009.5
-27470.2
-435.363
-39311.5
-4164.5
-59672.3
-1.18383e+06
-940.268
-57528.1
-15758.2
-29384.7
-19060.7
-54503.6
-54674.8
-927.611
-112507
-15095.7
-18247.5
-39.5316
-33167.4
-50635.8
-101.198
-2065.63
-22376
-11053
-234.161
-35675.7
-24675.8
-2121.76
-12203.3
-46120.4
-15759.9
-38798.6
-48726.4
-513.597
-59301.8
-47148.7
-57187
-27992.5
-66680.2
-51684.7
-4991.46
-45330
-72756.3
-41404.2
-54706.5
-1093.86
-43182.5
-156229
-24.1045
-23.0202
-18527.1
-23171
-51816.4
-21135.3
-5498.94
-68.8201
-67.3398
-40723.5
-37368.8
-23949.2
-20399.5
-171.669
-48577.8
-169.66
-37048.3
-2351.63
-391.098
-38048.4
-13015
-120510
-24145.4
-390.07
-42815.4
-16704.7
-45324
-843.427
-40327
-62042.3
-70810.1
-35567.8
-69125.1
-846.205
-61819.4
-15250.4
-972742
-18360.5
-61080.1
-35261
-5377.97
-33203
-1748.29
-42578.5
-149729
-59752
-14.0453
-57.506
-1757.11
-37279.8
-33579.5
-23294.1
-57855.2
-59464.8
-163.547
-30384.6
-20391
-3437.94
-55575.8
-40071.9
-399.373
-13471
-37276.9
-61682.2
-89898.8
-30039.5
-3441.01
-42168.5
-51186.5
-889.383
-31455.8
-63504.3
-53081.2
-32478.9
-51498.7
-16994.3
-63784.6
-51653.5
-63785.2
-197611
-6776.42
1.88798
2.15488
-51528.7
-17.0694
-1843.41
-37522
-16.2486
-63400.2
-76.6999
-50434.2
-51088.4
-74.8981
-224.158
-34934.3
-7042.53
-62623.6
-40035.2
-29558.4
-220.791
-29293.6
-50335.9
-36360.8
-149480
-548.134
-28753.8
-3641.25
-61295.9
-85297.1
-542.067
-42996.9
-47531.6
-1.18224e+06
-48944.4
-16514.8
-67985
-1214.42
-34587.1
-69425
-27667.9
-59403.6
-70599.9
-1204.07
-37229.7
-71501.2
-189300
4.56242
-47213.7
-20214.6
-7144.64
-72082.2
-6.95321
-2491.73
-26756.3
-61.5995
-56429.8
-44800.3
-72289.1
-57289.2
-2484.1
-212.049
-72950
-57301.3
-107454
-72046.5
-36195.9
-44627.2
-45526.3
-41083
-558.011
-4782.8
-34695.6
-30785.8
-71253.8
-163074
-55095
-16383.9
-61709.4
-1279.08
-4776.58
-77184.5
-63117.5
-353144
-238906
-78876
-42669.2
-7.46927
-7.77465
-64455.8
-47755.9
5.43554
-69761.3
-43699.1
-80435.9
5.35362
-26662.1
-5.26821
-65658.7
-4.54819
-8848.16
-81768.5
-2691.38
-75.7799
-76655.5
-974717
-66618.6
-37136.7
-73.5569
-44803.4
-82788.8
-276.879
-52884.8
-101474
-176813
-67296.5
-272.538
-67730.4
-8987.05
-83339.1
-66715.3
-738.222
-58639.6
-51193.5
-5311.89
-43187
-67499.3
-732.75
-41803.1
-42803.8
-83284.2
-1685.29
-19341.3
-34421.8
-85818.3
-65381.7
-226828
-67228.7
-88838.9
-26.0732
-1683.23
-0.216538
-45849.5
-91665.8
-50567.2
-61017
3.17949
-82603.2
-94186.9
-3504.6
-9928.84
-56.9297
-122602
-22332.7
-96259.1
-66394.3
-261.679
-3513.6
-40817.1
-97699.3
-36947.8
-63049.6
-81278.1
-762.639
-1.18265e+06
-68077.7
-95754.8
-6756.18
-84446.5
-98343.8
-64513.9
-51180.5
-45111.5
-65048.3
-1826.33
-45481
-271957
-81350.8
-103.864
-104.025
-6720.84
-46054.7
-102663
-20044.2
-51.931
-98087.1
-52.7266
-84727.7
-6.51286
-106755
-7.16759
-79442.6
-87972.2
6.49231
-110632
6.90886
-34066
-90994.9
-114515
-69432.8
-68.0147
-61371.3
-114164
-3880.74
-65.7846
-12280.2
-96812.6
-93681.1
-63369.3
-39063.8
-195815
-284852
-335.917
-117184
-45018.1
-331.81
-95873
-119454
-986.049
-12463.3
-76383.9
-97345.4
-94498.7
-982.347
-7523.15
-103630
-36574.2
-120623
-94716.8
-54445.5
-969952
-2330.84
-252305
-97738.4
-160.458
-59505.1
-92.8799
-114639
-23765.4
-59785.5
-26.2264
-2331.61
-120347
-120025
-131168
-43084.1
9.55073
-125105
-40977.3
-91101.1
-89624.8
-96857.7
-49.025
-4841.31
-129697
-96826.7
-13826.9
-71374.1
-133580
-323.581
-33520.2
-26040.8
-118363
-4848.78
-54551.8
-136479
-94459.5
-1031.15
-578900
-57883.9
-138086
-41331.6
-9170.39
-86313.3
-114323
-121585
-281051
-344.97
-343.787
-248.936
-60590.6
-249.534
-2531.71
-87466.4
-142.594
-138064
-144.122
-42.2124
-120174
-35708.8
-115518
-9136.61
-43.4124
-1.18881e+06
-90158.8
-146499
-25482.5
12.2549
-121515
-67384.2
12.3009
-153628
-127047
-62.4477
-136076
-160082
-197990
-60.9065
-131953
-5360.72
-108403
-35683.4
-165652
-38090.7
-77838.3
-16312.2
-418.788
-136050
-81843.2
-416.888
-170032
-54053.7
-659451
-139022
-131798
-84868.6
-1312.44
-172798
-32423.9
-16350.4
-140491
-1313.02
-89742.8
-10130.8
-173486
-252681
-437.917
-329.163
-128897
-99870.7
-3137.36
-102568
-200.519
-140090
-60404
-34456.8
-125034
-71.4282
-109865
-171606
-3140.95
10.4856
-157271
-28819
-977787
-164883
-137386
-76028.5
-50.7021
-35225.9
-81349.6
-33826.9
-172003
-6373.9
-166658
-429.527
-178327
-17580.3
-29521.8
-115785
-95938
-183445
-131993
-6323.19
-30098.7
-30028.2
-87842.7
-1414.09
-186876
-158424
-258492
-730.228
-11429.9
-188106
-726.281
-592.007
-113856
-590.633
-428.438
-429.046
-123978
-248.505
-3427.17
-71556.3
-249.67
-30149.1
-79.2978
-101284
-186574
-79.9182
-54684.7
-103629
15.8342
-11216.2
-146771
-122237
-25173.1
15.982
-161074
-30751.6
-177347
-85.1563
-204073
-1.25984e+06
-169204
-181783
-85.2994
-213636
-6959.98
-81938.7
-112880
-176542
-111384
-588.962
-222024
-19396.4
-182759
-591.228
-228763
-60572.8
-173364
-871061
-22680
-187425
-30189.5
-131554
-1804.55
-233258
-19947.3
-190007
-91582.3
-1804.88
-111783
-104109
-234891
-19560.9
-220194
-828.438
-971839
-12413.3
-684.156
-190036
-503.21
-16980.9
-99396.3
-161131
-296.246
-4131.13
-232994
-97.9205
-186906
16.3154
-53946.6
-113559
-4101.04
-226886
-113170
-93.5086
-178535
-32026.6
-15208.8
-25890.7
-180117
-1.07661e+06
-205662
-145042
-7930.5
-214428
-659.273
-216003
-221996
-89787.3
-20825.3
-84046.9
-169288
-7754.32
-228130
-2013.51
-15541.5
-32068.6
-145810
-200257
-232336
-91754.9
-200747
-125807
-1163.79
-1158.75
-10266.7
-995.584
-992.718
-788.545
-234017
-787.588
-87161.3
-154571
-547.124
-13316.5
-546.931
-290.521
-24028.1
-290.203
-4549.86
-63976.6
-68.4662
-232546
-67.9054
-180109
20.0034
20.0855
-131017
-227148
-12955
-54873.4
-123661
-63688.7
-192.234
-136655
-33344.4
-1.50045e+06
-193.446
-113454
-6491.14
-104174
-217120
-8506.55
-205941
-952.877
-260130
-4449.48
-156444
-1.59312e+06
-214944
-950.99
-269946
-21291.1
-221824
-95085.7
-202162
-19072.2
-277258
-2566.17
-78351.6
-116264
-62230.4
-226771
-281858
-8721.71
-2535.86
-153685
-1236.86
-229288
-1062.51
-839.912
-283077
-574.704
-2954.85
-182444
-14007.2
-20937.2
-293.42
-129759
-228776
-5283.56
-75462
-84470.8
-57.8217
-280353
-224908
16.2177
-5118.04
-273051
-93642.3
-258.698
-53943.3
-158644
-216933
-82131.6
-1.36172e+06
-15238.1
-30773.4
-260231
-9115.03
-1149.82
-929.28
-109910
-204222
-99723.6
-241380
-241544
-21619
-55396.7
-249090
-8728.96
-37272.1
-132091
-186771
-2946.21
-1.56552e+06
-82498.9
-254440
-29843.5
-113664
-70137.2
-1502.41
-217331
-1500.28
-1320.23
-1319.44
-1088.4
-1088.73
-808.812
-257732
-3186.02
-809.564
-81851.6
-497.776
-498.564
-165178
-14106.8
-199.123
221.056
437.4
-199.618
-258494
-5854.77
0.894556
-10314.9
0.606208
-188336
-256080
-103772
-40.6938
-77801.7
-66672
-38.8089
-140051
-13297.4
-249809
-526.162
-1.99444e+06
-42614.3
-1.77928e+06
-515.389
-72750.8
-29076.2
-239099
-9611.54
-156409
-1698.77
-56298.3
29.4203
-85313.3
-1649.15
-35621.8
-223564
-113674
-18669.8
-78354.3
-225288
-3740.4
-282466
-5764.22
-231542
-202923
-70293.1
-1570.51
-123495
-1368.51
-288050
-40989.2
-3601.04
-86130.2
-1109.87
-798.826
-234481
-459.909
-291091
-14241.2
-151.415
-124.661
-16955.5
-236474
-6593.2
-177462
-1638.58
-86862.9
19.9265
-292558
-236851
-116.118
-291255
-6043.66
-67565.1
-1.87014e+06
-234359
-63718.2
-91069.1
-781.607
-148085
-285763
-11364.7
-37526.6
-227972
-23785.5
-52424.2
-9735.27
-2576.61
-274670
-4392.76
-2217.85
-62133.4
-18445.6
-216497
-3912.55
-16003
-257025
-75780.5
-116185
-8898.15
-199496
-4573.2
-62677.9
-232781
-37378
-1623.69
-1628.6
-1387.56
-1391.72
-1087.69
-1091.75
-246911
-736.176
-21490
-740.799
-370.281
-177413
-374.957
-71.8145
-67556.9
-75.4411
-11500.6
-246610
15.0401
-202898
-84838.5
-48785.5
16.3717
-7220.5
-43156
-329.214
-8074.48
-244638
-151334
-34.716
-314.691
-2.85152e+06
-18337.4
-694.373
-154.178
-1408.49
58.4545
-240729
-2.74602e+06
-760.753
-168790
-1349.7
-9152.05
-3080.06
-6760.17
-234552
-3525.73
-122455
-26775.7
-56220.7
-11615.2
-3351.47
-20353.5
-9610.48
-55890.7
-225864
-42787
-17384
-6833.8
-132176
-2.34149e+06
-2515.33
-6840.32
-303.559
23.3336
-214144
-23458.1
-1023.33
-11890.4
-13156.4
-6451.31
-4147.22
-92370.2
-6966.3
-44101.6
-53426.7
-14443.5
-198997
-17583.2
-29813.3
-10767
-30006.2
-95613
-32030.3
-49658.3
-180309
-9485.72
-23228.1
300.38
-35616.7
-49266.8
-34285.6
-9792.79
-11498.7
-17912.8
-63797.4
-71949.1
-60566.8
-221729
-14216.2
-158122
-68031
-382.868
-274355
-94551.1
-17618.1
-221958
-40454.7
-5108.12
-61132.8
-2.56943e+06
-85335.4
-271206
-11696
-132714
-2110.31
137.495
-216728
-114831
-263125
-19815.3
-43615.7
-37114
-13015.8
-100928
-6857.88
-208875
-13923.8
-43338.7
-251880
-104958
-26273.1
-26262.9
-131383
-24074.6
-198616
-9863.1
-32077.7
-237746
-111684
-11010.7
-186027
-79.0781
-49500.5
-22537.6
-39821.2
-76380.8
-220596
-28709.1
-139337
-170899
-17682.7
-10130.2
-10708.3
-41907.9
-81286
-200514
-113864
-13936.3
-3807.92
-153602
-2.85922e+06
104.996
-115637
-177974
-49151.8
-138570
-14465.2
-21314.2
-947.833
-134516
-25626.1
-9400.56
-153112
-5272.21
-3.69627e+06
-145162
-110677
-29061.6
-113514
-15714.8
-43903.7
-8104.09
-181568
-7639.6
-10283
-126190
-26823.7
-23306.3
-117297
-167131
-91137.2
-160155
-16727.1
-10162.5
-44276.1
-4529.53
-98018.6
-36638.8
-155098
-10992.4
-51007.8
-81251
-68181
-84106.9
-144125
-65805.7
-169618
-16860.4
-69851.5
-12282.6
-6409.49
-87204.6
-36146
-7476.37
-133642
-43467.9
-8007.4
-45901.9
-97974.3
-132201
-33208.1
-123243
-43693.2
-161152
-127348
-112563
-26233.1
-76795.5
-11724.4
-5216.63
-12104
-4404.1
-170202
-6322.44
-101237
-22438.9
-3.40186e+06
-149346
-7059.52
-88953.3
-44967.8
-141690
-8681.49
-11769.9
-80937.7
-1605.75
-3.24984e+06
-189073
-44402.2
-172595
-2185.51
-75531.7
-8496.83
-154198
-133994
-111625
-6306.25
-7764.49
-57502.5
-60968.6
-129377
126.971
-3610.25
-150451
-185842
-98295
-125072
-115203
-110599
-45601.1
-2220.1
-88426.1
-4153.43
-149684
-4.25529e+06
-2516.6
-104339
-123189
-4869.48
-66525.8
-80555.3
-30239.8
-1011.11
-5919.12
-182927
-89385.4
-95392.6
-3095.91
-73864.5
-57585.8
-98839.2
-87431.7
-1296.2
-16252
-42387.5
-144284
-13141.8
-98616.2
-67639
-4.78322e+06
-50168.3
-71149.1
-79600.6
-1907.04
-1378.42
-61181.1
-163069
-6055.73
-2693.44
-71347.7
-78500.9
-54273.7
-2632.49
-22117.6
-62591.1
-56241.5
-119279
-839.741
-47005.1
-54637.9
-2162.62
-53309.3
-60568.7
-39272.4
-75529.3
-745.381
-143184
-43426
-2115
-32076.4
446.781
-41850.2
-31064.5
-33004.1
-916.944
-115288
-43373.7
-40204.9
-37360.5
-22512.8
-22334.9
115.567
-296.693
-13984.5
-28806.7
-36479.2
-117368
-12114.3
148.295
-6297.93
-28723.7
-4.32555e+06
42.0525
-4290.28
-54795.4
-52309.3
-1554.29
-79713.6
-19046.6
-305.824
-42125.8
68.3094
266.944
239.86
-18252.9
-405.875
-86934.4
-9.51157
-79793.3
-2344.94
-41789
-11193.9
-3651.29
-4.00386e+06
-5803.47
-45077
-23672.8
-63700.4
-5529.58
-7977.32
-45839.7
-5024.72
-3149.64
-2599.83
-3281.56
-62079
-2088.92
-45417.1
-42849.2
-2552.86
-5.97293e+06
-4.24706e+06
-42444.6
-800.353
-33414.7
-332.054
-36918.9
-40755.5
-51095.1
127.02
-17488.1
-41778.9
-157.828
-32259.6
-36583.1
-1291.31
-42357.2
-102941
-5.32444e+06
-37961.8
-3199.83
-5242.44
-23602.3
-33339.6
-31563.6
-4643.44
-4482.7
-5.70895e+06
-8064.29
-41741
-3975.02
-8885.46
-29446.4
-3482.8
-33165.4
-37493.7
-14259.9
-2993.09
-14501.4
-7.25137e+06
-30944.5
-49176.7
-18522.5
-2515.34
-41888.5
-17308.5
-1958.99
-33628.6
-24662.9
-22745.7
-1220.07
-5.31483e+06
-6.38958e+06
-30569.3
-41291.6
-74.689
-5.18362e+06
-28333
337.212
-40437.7
-39500.6
282.893
-8.55487e+06
133.472
-212.663
-875.923
-7.42428e+06
-27178.5
-7.20344e+06
-27785.1
-26960.1
-25987
-1794.08
-25175.2
-24141.1
-23328.2
-22268.2
-6.45349e+06
-21486.7
-2970.5
-20412.5
-19648.9
-18531.6
-4321.12
-17735.4
-16989.7
-16048.8
-15198
-4854.89
-12948.2
-6.40958e+06
-10642.7
-7599.97
-8022.05
-5200.87
-2691.96
-12942.8
-1999.17
-1981.39
-1599.07
-1146.39
-893.254
-309.124
-7.66502e+06
45.1827
-8.76368e+06
252.094
313.961
247.031
-15.0517
-438.94
-1382.5
-1152.42
-1428.97
-7.70042e+06
-3413.89
-6005.23
-9501.35
-8.94698e+06
-3110.87
-14112.9
-2583.43
-2089.85
-1626.43
-1193.23
-761.617
-1.04131e+07
-396.592
-141.44
69.88
332.767
701.85
589.247
-9.06956e+06
163.91
-757.939
-2435.12
-5757.83
-12466.7
-1.22227e+07
-12715.6
-22708.6
-40166.7
-1.063e+07
-4487.61
-4106.74
-3809.73
-3530.24
-3246.69
-2992.76
-2729.91
-2498.72
-2256.4
-2055.87
-1827.56
-1642.71
-1427.43
-1258.75
-1083.9
-923.897
-789.219
-412.754
-431.666
-151.664
-97.0818
-643.792
-76.3824
494.125
675.016
322.052
-162.991
-927.364
-1965.84
-3012.81
-4732.18
-6274.22
-8467.36
-13472.5
-13438.7
-10979.2
-14727.9
-20315.4
-28184
-37282.4
SCALARS cohesion float 1
LOOKUP_TABLE default
16.696
13.1769
15.414
11.8509
12.1367
11.6117
12.4738
11.6453
11.3979
6.85105
11.7445
11.3465
9.71152
12.7133
11.5328
12.3413
9.01592
11.595
7.89306
12.1084
11.1067
11.5432
10.418
12.8685
9.34954
10.9805
13.0641
10.2568
8.39673
11.257
12.6948
9.56489
11.1075
10.4931
7.80244
11.7663
10.1907
13.1447
12.4048
11.344
7.3806
12.9028
13.034
13.3599
11.4949
13.2726
7.55772
13.1966
9.86116
14.1398
10.6173
14.8455
7.81748
13.9991
15.28
12.9945
14.4244
15.5813
8.37693
13.8214
12.8354
15.2239
14.8695
10.6528
14.1469
13.657
12.1382
16.2429
14.4837
16.6815
17.6252
14.6698
11.7122
13.003
12.0863
11.6997
12.5747
9.50136
12.4684
10.2559
14.1293
13.2347
14.4563
11.8478
12.8791
13.1244
12.7099
12.896
12.8707
12.5085
12.9226
12.9666
12.8843
12.8666
12.4165
13.1717
12.6385
12.937
12.8391
13.0711
13.1689
12.8477
12.9737
14.6542
12.8939
13.0464
12.8847
13.1584
13.0516
13.2242
12.9317
11.9253
12.8378
13.2673
13.0654
13.2086
9.11713
13.0764
13.2736
13.0163
17.3922
13.1851
12.526
12.966
13.2948
12.8506
13.4339
13.105
13.3092
12.9552
13.4577
12.9962
13.2326
13.1385
13.3346
13.2118
13.6232
12.9093
13.0878
13.6309
13.4947
13.3594
13.6471
13.173
16.7863
13.0471
13.6628
13.3945
12.9719
13.6801
13.3021
13.89
13.5443
13.0451
12.6332
13.3381
13.2209
13.7048
13.0968
13.9127
13.4289
13.1832
13.7296
13.9467
13.0436
14.144
13.2693
13.6141
14.1573
13.4775
13.7647
14.1685
13.2845
13.162
13.3982
13.4481
14.1863
13.9967
13.7998
14.2038
13.5258
13.1053
13.3353
13.1734
14.2289
14.4985
18.148
13.2299
13.8488
14.2541
12.7866
13.7116
14.5228
14.0676
13.3151
13.5538
13.5927
13.4014
14.29
14.5583
13.8982
13.2026
13.5312
14.8629
14.326
14.8749
13.317
14.6095
14.8874
13.6598
14.9054
14.1674
13.9663
14.3765
14.9235
13.4913
13.6783
13.8466
13.284
13.6071
14.9498
14.6828
13.3514
12.7341
14.427
14.976
13.4075
15.4333
14.034
13.75
16.9188
13.4932
15.459
15.0132
12.9861
13.58
13.8246
14.4965
15.4964
15.0503
14.3049
13.7103
14.7853
13.4037
14.1255
18.5918
13.8394
15.5503
15.1024
16.0525
13.5223
13.1628
14.5658
16.066
16.0794
14.0271
16.0989
15.1543
13.6974
16.1183
15.627
13.9455
14.2155
13.9338
16.1464
14.925
13.8577
13.5175
14.6581
13.9587
16.1743
13.5866
15.2249
13.6409
14.4891
16.2138
13.7283
16.925
15.7331
13.8164
16.9532
16.2531
15.2957
13.2411
14.3384
14.7528
13.9482
14.0985
16.9942
16.3079
14.0786
13.6679
17.0526
15.3933
14.2682
16.363
15.1156
17.2201
13.7912
15.8806
19.1143
17.8242
14.1796
14.8765
14.4586
17.8392
13.9681
17.1358
17.8542
16.44
17.8759
14.2518
15.4897
17.8977
14.7343
14.2321
17.929
16.5168
17.9604
13.8159
17.2534
13.8889
14.9999
13.9418
18.005
14.0308
14.6156
16.0792
15.6169
18.0495
14.12
16.6188
18.5837
14.419
14.2534
15.3663
18.6156
13.5593
18.1099
14.4453
14.3854
13.0359
17.4123
18.6608
18.1701
16.7211
14.5781
15.1603
15.7445
18.725
14.003
14.7714
19.6438
18.2542
14.1323
17.3609
18.8143
15.0511
14.3122
18.7614
14.609
16.8571
16.3418
18.3382
18.777
18.7924
17.6276
18.8146
14.5805
15.3205
15.9101
18.8366
18.9397
14.7227
10.208
18.8678
18.4509
18.8988
16.9931
14.1918
12.9258
15.692
14.9702
14.2699
18.943
14.3204
14.4122
18.9869
18.5633
14.5033
14.8013
19.1103
16.0761
14.6396