# vtk DataFile Version 3.0
File generated from DClib
ASCII

DATASET UNSTRUCTURED_GRID
POINTS 1909 float
50 0 0 
48.75 0 0 
50 1.66667 0 
47.5 0 0 
50 3.33333 0 
46.25 0 0 
50 5 0 
45 0 0 
43.75 0 0 
50 6.66667 0 
43 2 0 
42.5 0 0 
50 8.33333 0 
43 4.66667 0 
41.25 0 0 
41.075 2 0 
50 10 0 
40 0 0 
43 7.33333 0 
39.15 2 0 
38.75 0 0 
43 10 0 
37.5 0 0 
37.225 2 0 
36.25 0 0 
36 4 0 
35.3 2 0 
36 5 0 
35 0 0 
35.325 4 0 
36 6 0 
36 7 0 
34.65 4 0 
36 8 0 
33.75 0 0 
33.975 4 0 
36 9 0 
33.375 2 0 
33.3 4 0 
36 10 0 
32.5 0 0 
32.625 4 0 
33 6 0 
31.95 4 0 
33 7.45455 0 
31.45 2 0 
31.25 0 0 
31.95 6 0 
33 8.79545 0 
31.275 4 0 
33 10 0 
30.6 4 0 
30 0 0 
30.9 6 0 
29.925 4 0 
29.525 2 0 
29.85 6 0 
29.25 4 0 
28.75 0 0 
30 8 0 
30 8.45455 0 
28.575 4 0 
29.625 8 0 
30 8.90909 0 
28.8 6 0 
30 9.25 0 
29.782 8.90909 0 
30 9.59091 0 
29.9487 9.59091 0 
29.25 8 0 
29.7462 9.25 0 
30 9.79545 0 
29.897 9.59091 0 
29.564 8.90909 0 
29.9547 9.79545 0 
29.3462 8.45455 0 
29.84 9.59091 0 
30 10 0 
29.8975 9.79545 0 
29.9882 10 0 
29.9902 10.0098 0 
29.7827 9.59091 0 
29.9765 10 0 
29.9804 10.0196 0 
29.9667 10.0098 0 
29.9591 10 0 
29.9686 10.0196 0 
29.9659 10.0341 0 
29.9569 10.0196 0 
29.9418 10 0 
29.9395 10.0196 0 
29.9515 10.0485 0 
29.932 10.0098 0 
29.9424 10.0341 0 
29.8241 9.79545 0 
29.7181 9.59091 0 
29.9166 10 0 
29.9397 10.0485 0 
29.9222 10.0196 0 
29.9279 10.0485 0 
29.9305 10.0695 0 
29.8914 10 0 
29.9077 10.0341 0 
27.9 4 0 
29.897 10.0196 0 
29.9106 10.0485 0 
29.8817 10.0098 0 
29.907 10.0695 0 
29.8933 10.0485 0 
29.9095 10.0905 0 
29.8719 10.0196 0 
27.6 2 0 
29.8556 10 0 
29.8978 10.0905 0 
29.6531 9.59091 0 
29.3437 8.90909 0 
27.5 0 0 
29.8681 10.0485 0 
29.886 10.0905 0 
29.8574 10.0341 0 
29.4839 9.25 0 
29.8723 10.0695 0 
29.7289 9.79545 0 
29.836 10.0196 0 
29.8687 10.0905 0 
29.8197 10 0 
29.8797 10.1203 0 
29.843 10.0485 0 
29.8513 10.0905 0 
29.81 10.0098 0 
29.8561 10.1203 0 
29.8002 10.0196 0 
29.8221 10.0695 0 
29.8072 10.0485 0 
29.8262 10.0905 0 
29.5782 9.59091 0 
29.8498 10.1502 0 
29.7695 10 0 
29.7858 10.0341 0 
29.838 10.1502 0 
29.8215 10.1203 0 
29.8011 10.0905 0 
29.8262 10.1502 0 
29.7714 10.0485 0 
28.875 8 0 
29.75 10.0196 0 
29.8089 10.1502 0 
29.7654 10.0905 0 
29.7193 10 0 
29.7916 10.1502 0 
29.7505 10.0695 0 
29.8079 10.1921 0 
29.7713 10.1203 0 
29.7096 10.0098 0 
29.6047 9.79545 0 
29.503 9.59091 0 
29.7213 10.0485 0 
29.7665 10.1502 0 
29.6999 10.0196 0 
29.7844 10.1921 0 
29.7296 10.0905 0 
29.6856 10.0341 0 
29.7414 10.1502 0 
29.7497 10.1921 0 
29.6503 10 0 
29.7661 10.2339 0 
29.6712 10.0485 0 
29.6999 10.1203 0 
29.7543 10.2339 0 
29.6796 10.0905 0 
29.7057 10.1502 0 
29.7425 10.2339 0 
29.1235 8.90909 0 
29.6309 10.0196 0 
29.6504 10.0695 0 
29.4146 9.59091 0 
29.7252 10.2339 0 
29.6996 10.1921 0 
29.6701 10.1502 0 
29.7079 10.2339 0 
29.6296 10.0905 0 
29.5813 10 0 
29.6023 10.0485 0 
29.5716 10.0098 0 
29.6828 10.2339 0 
29.7086 10.2914 0 
29.2101 9.25 0 
29.562 10.0196 0 
29.6201 10.1502 0 
29.6578 10.2339 0 
29.4428 9.79545 0 
29.5999 10.1203 0 
29.6849 10.2914 0 
29.6283 10.1921 0 
29.5477 10.0341 0 
29.3259 9.59091 0 
29.5608 10.0905 0 
29.5335 10.0485 0 
29.6221 10.2339 0 
29.6503 10.2914 0 
29.5702 10.1502 0 
29.4881 10 0 
29.5128 10.0695 0 
29.6511 10.3489 0 
29.5866 10.2339 0 
29.6392 10.3489 0 
29.4689 10.0196 0 
29.6002 10.2914 0 
29.6273 10.3489 0 
29.4921 10.0905 0 
29.61 10.3489 0 
29.5286 10.1921 0 
29.5016 10.1502 0 
29.5368 10.2339 0 
29.5926 10.3489 0 
29.4405 10.0485 0 
29.2199 9.59091 0 
29.4626 10.1203 0 
29.3949 10 0 
28.9 8.90909 0 
29.5676 10.3489 0 
29.5291 10.2914 0 
29.3853 10.0098 0 
28.6923 8.45455 0 
29.487 10.2339 0 
29.5426 10.3489 0 
29.3758 10.0196 0 
29.5734 10.4266 0 
29.4331 10.1502 0 
29.3993 10.0905 0 
28.5 8 0 
29.3617 10.0341 0 
29.5496 10.4266 0 
29.5071 10.3489 0 
29.2327 9.79545 0 
29.3475 10.0485 0 
29.1136 9.59091 0 
29.4187 10.2339 0 
29.5148 10.4266 0 
29.4716 10.3489 0 
29.3918 10.1921 0 
29.3271 10.0695 0 
29.4298 10.2914 0 
29.2714 10 0 
29.3406 10.1502 0 
28.9208 9.25 0 
29.3066 10.0905 0 
29.4648 10.4266 0 
29.422 10.3489 0 
29.4958 10.5042 0 
29.2524 10.0196 0 
27.75 6 0 
29.3504 10.2339 0 
29.4837 10.5042 0 
29.4718 10.5042 0 
29.2774 10.1203 0 
29.4543 10.5042 0 
29.3724 10.3489 0 
29.2244 10.0485 0 
29.4369 10.5042 0 
29.3938 10.4266 0 
28.9853 9.59091 0 
29.2481 10.1502 0 
28.6766 8.90909 0 
29.4119 10.5042 0 
29.2934 10.2914 0 
27.225 4 0 
29.148 10 0 
29.2582 10.2339 0 
29.1837 10.0905 0 
29.3869 10.5042 0 
29.1385 10.0098 0 
29.3044 10.3489 0 
29.1291 10.0196 0 
29.2072 10.1921 0 
29.3514 10.5042 0 
29.1152 10.0341 0 
29.3929 10.6071 0 
29.2949 10.4266 0 
29.1013 10.0485 0 
29.3686 10.6071 0 
29.316 10.5042 0 
29.2364 10.3489 0 
28.9623 9.79545 0 
29.1257 10.1502 0 
29.1662 10.2339 0 
29.0811 10.0695 0 
28.8566 9.59091 0 
29.3336 10.6071 0 
29.2666 10.5042 0 
29.0609 10.0905 0 
28.9875 10 0 
29.2835 10.6071 0 
29.1448 10.3489 0 
29.0321 10.1203 0 
29.2173 10.5042 0 
29.1098 10.2914 0 
28.125 8 0 
28.9688 10.0196 0 
29.1594 10.4266 0 
28.611 9.25 0 
29.29 10.71 0 
28.4486 8.90909 0 
29.0443 10.2339 0 
29.0033 10.1502 0 
29.2777 10.71 0 
28.9413 10.0485 0 
29.2128 10.6071 0 
29.2655 10.71 0 
29.1497 10.5042 0 
29.2478 10.71 0 
28.7003 9.59091 0 
29.0533 10.3489 0 
29.2303 10.71 0 
28.9629 10.1921 0 
28.9013 10.0905 0 
29.2051 10.71 0 
29.0822 10.5042 0 
29.1801 10.71 0 
28.827 10 0 
29.1144 10.6071 0 
28.8177 10.0098 0 
28.9225 10.2339 0 
28.8085 10.0196 0 
29.1447 10.71 0 
28.7949 10.0341 0 
28.8443 10.1502 0 
28.977 10.4266 0 
28.9322 10.3489 0 
29.1094 10.71 0 
28.7813 10.0485 0 
28.9912 10.5042 0 
29.1562 10.8438 0 
28.5436 9.59091 0 
28.7615 10.0695 0 
28.8669 10.2914 0 
29.1313 10.8438 0 
28.6184 9.79545 0 
29.0602 10.71 0 
28.2207 8.90909 0 
28.7418 10.0905 0 
28.0378 8.45455 0 
28.9798 10.6071 0 
29.0958 10.8438 0 
29.0112 10.71 0 
28.9005 10.5042 0 
28.7136 10.1203 0 
28.7644 10.2339 0 
28.8113 10.3489 0 
29.0454 10.8438 0 
28.6223 10 0 
28.6854 10.1502 0 
28.2746 9.25 0 
28.9441 10.71 0 
28.6042 10.0196 0 
27.75 8 0 
28.9747 10.8438 0 
28.6459 10.1921 0 
28.5773 10.0485 0 
29.0225 10.9775 0 
28.3532 9.59091 0 
28.7804 10.5042 0 
28.736 10.4266 0 
28.8772 10.71 0 
29.0097 10.9775 0 
28.9971 10.9775 0 
28.799 10.6071 0 
28.9791 10.9775 0 
28.5384 10.0905 0 
28.6064 10.2339 0 
28.6543 10.3489 0 
28.9611 10.9775 0 
28.8769 10.8438 0 
27.9867 8.90909 0 
26.25 0 0 
28.9358 10.9775 0 
28.7871 10.71 0 
28.9106 10.9775 0 
28.6607 10.5042 0 
28.4177 10 0 
26.55 4 0 
28.552 10.2914 0 
28.483 10.1502 0 
28.4087 10.0098 0 
28.8751 10.9775 0 
28.3998 10.0196 0 
28.3866 10.0341 0 
28.8399 10.9775 0 
28.6974 10.71 0 
28.3735 10.0485 0 
28.1625 9.59091 0 
28.7436 10.8438 0 
28.4976 10.3489 0 
28.3543 10.0695 0 
28.791 10.9775 0 
28.4052 10.2339 0 
28.3352 10.0905 0 
28.8519 11.1481 0 
28.1869 9.79545 0 
28.5607 10.6071 0 
28.5053 10.5042 0 
28.7423 10.9775 0 
28.8258 11.1481 0 
28.308 10.1203 0 
28.5787 10.71 0 
27.904 9.25 0 
28.7893 11.1481 0 
28.424 10.4266 0 
27.7528 8.90909 0 
28.2807 10.1502 0 
28.6758 10.9775 0 
27.375 8 0 
28.7383 11.1481 0 
28.1619 10 0 
28.5649 10.8438 0 
28.2425 10.1921 0 
28.6096 10.9775 0 
28.1444 10.0196 0 
28.298 10.3489 0 
28.4605 10.71 0 
26.7 6 0 
27.9315 9.59091 0 
28.3503 10.5042 0 
28.6676 11.1481 0 
28.1187 10.0485 0 
28.2042 10.2339 0 
28.5207 10.9775 0 
28.0813 10.0905 0 
28.6814 11.3186 0 
27.3818 8.45455 0 
28.6679 11.3186 0 
28.1516 10.2914 0 
28.5703 11.1481 0 
28.6544 11.3186 0 
28.6358 11.3186 0 
27.5109 8.90909 0 
28.3072 10.71 0 
28.6173 11.3186 0 
28.2524 10.6071 0 
28.4322 10.9775 0 
28.028 10.1502 0 
28.5915 11.3186 0 
28.0989 10.3489 0 
28.33 10.8438 0 
28.5658 11.3186 0 
28.153 10.5042 0 
27.9061 10 0 
27.8975 10.0098 0 
28.5303 11.3186 0 
28.4384 11.1481 0 
27.7002 9.59091 0 
27.889 10.0196 0 
27.8765 10.0341 0 
28.4949 11.3186 0 
28.3154 10.9775 0 
27.9532 10.2339 0 
27.8639 10.0485 0 
28.0276 10.4266 0 
28.1544 10.71 0 
27.8457 10.0695 0 
27.4909 9.25 0 
28.4463 11.3186 0 
27 8 0 
27.8275 10.0905 0 
28.3979 11.3186 0 
27.8015 10.1203 0 
27.6542 9.79545 0 
25.675 2 0 
28.1991 10.9775 0 
27.2691 8.90909 0 
27.9563 10.5042 0 
28.4682 11.5318 0 
28.2625 11.1481 0 
27.7755 10.1502 0 
28.3322 11.3186 0 
27.8502 10.3489 0 
28.4401 11.5318 0 
25.875 4 0 
27.7391 10.1921 0 
28.4019 11.5318 0 
28.0268 10.8438 0 
28.2668 11.3186 0 
27.9602 10.71 0 
28.3498 11.5318 0 
27.4223 9.59091 0 
27.7026 10.2339 0 
27.5927 10 0 
28.0486 10.9775 0 
27.8616 10.6071 0 
27.5762 10.0196 0 
28.1794 11.3186 0 
28.2786 11.5318 0 
27.5519 10.0485 0 
27.6524 10.2914 0 
28.0319 11.1481 0 
27.7108 10.5042 0 
27.5167 10.0905 0 
27.0169 8.90909 0 
28.0924 11.3186 0 
27.6021 10.3489 0 
27.8988 10.9775 0 
28.1818 11.5318 0 
27.7667 10.71 0 
26.625 8 0 
28.255 11.745 0 
27.4664 10.1502 0 
28.2402 11.745 0 
28.2256 11.745 0 
28.2059 11.745 0 
27.978 11.3186 0 
26.7234 8.45455 0 
27.0259 9.25 0 
27.5342 10.4266 0 
28.1863 11.745 0 
27.1442 9.59091 0 
28.0516 11.5318 0 
28.1598 11.745 0 
27.3959 10.2339 0 
28.1334 11.745 0 
27.2793 10 0 
27.2714 10.0098 0 
27.2635 10.0196 0 
27.7086 10.9775 0 
27.6431 10.8438 0 
28.0975 11.745 0 
27.8643 11.3186 0 
27.4661 10.5042 0 
27.2518 10.0341 0 
27.2401 10.0485 0 
28.0617 11.745 0 
26.7648 8.90909 0 
27.5255 10.71 0 
27.7353 11.1481 0 
27.2231 10.0695 0 
28.0133 11.745 0 
27.2061 10.0905 0 
27.8791 11.5318 0 
27.2986 10.3489 0 
27.1818 10.1203 0 
27.9651 11.745 0 
27.3758 10.6071 0 
27.0077 9.79545 0 
27.7174 11.3186 0 
27.1576 10.1502 0 
25 0 0 
27.5193 10.9775 0 
27.9003 11.745 0 
27.1236 10.1921 0 
26.25 8 0 
27.9939 12.0061 0 
25.65 6 0 
27.8359 11.745 0 
26.8136 9.59091 0 
27.0896 10.2339 0 
27.9626 12.0061 0 
27.2853 10.71 0 
25.2 4 0 
27.5713 11.3186 0 
27.9218 12.0061 0 
26.4998 8.90909 0 
27.167 10.5042 0 
27.6541 11.5318 0 
27.0427 10.2914 0 
27.7503 11.745 0 
26.9033 10 0 
27.8677 12.0061 0 
26.8882 10.0196 0 
26.8659 10.0485 0 
26.9958 10.3489 0 
27.2836 10.9775 0 
27.6652 11.745 0 
27.3609 11.1481 0 
27.7955 12.0061 0 
26.499 9.25 0 
[...]
POINT_DATA 1909
SCALARS phi float 1
LOOKUP_TABLE default
VECTORS Displacement float
0 0 0
0 0 0
0 -0.0059914 0
0 0 0
0 -0.00828226 0
0 0 0
0 -0.0071759 0
0 0 0
0 0 0
0 -0.00301615 0
0.0169962 -0.00519084 0
0 0 0
0 0.00393712 0
0.0329581 -0.00308863 0
0 0 0
0.0230721 -0.00508177 0
0 0.0128504 0
0 0 0
0.0437381 0.00730506 0
0.0297532 -0.00515413 0
0 0 0
0.0494827 0.0238258 0
0 0 0
0.0369004 -0.00553387 0
0 0 0
0.0699166 -0.00340154 0
0.0441196 -0.00622614 0
0.0823581 0.000855089 0
0 0 0
0.0750106 -0.00375617 0
0.0912613 0.00658031 0
0.0969999 0.013421 0
0.0800187 -0.0042007 0
0.100454 0.0206307 0
0 0 0
0.0850024 -0.0049128 0
0.103183 0.028211 0
0.0509511 -0.00718771 0
0.089849 -0.00572976 0
0.105766 0.0372027 0
0 0 0
0.0944656 -0.0067185 0
0.120688 0.00350179 0
0.098853 -0.00780811 0
0.132191 0.0157992 0
0.0569647 -0.00836324 0
0 0 0
0.130877 -0.000494108 0
0.137152 0.032562 0
0.102918 -0.00902226 0
0.138169 0.056554 0
0.106661 -0.0103268 0
0 0 0
0.139493 -0.00467509 0
0.110038 -0.0117226 0
0.0618029 -0.00970735 0
0.146772 -0.00922478 0
0.113021 -0.0132025 0
0 0 0
0.171766 0.00175407 0
0.176736 0.00565974 0
0.115621 -0.0147462 0
0.175348 -0.00133224 0
0.181608 0.0106185 0
0.152682 -0.0141222 0
0.185291 0.0176665 0
0.184214 0.00755244 0
0.189104 0.0277021 0
0.189903 0.0253426 0
0.178508 -0.00449959 0
0.188746 0.0122871 0
0.190033 0.034624 0
0.190676 0.023369 0
0.186558 0.00481604 0
0.190805 0.0322408 0
0.183378 -0.000868909 0
0.191436 0.0213809 0
0.190335 0.0425046 0
0.191825 0.0294723 0
0.190687 0.0426442 0
0.290495 0.0786696 0
0.19214 0.019624 0
0.191089 0.042604 0
0.367139 0.105196 0
0.288559 0.0775645 0
0.191712 0.0424932 0
0.365183 0.104077 0
0.371215 0.104747 0
0.36293 0.10272 0
0.19239 0.0422387 0
0.359073 0.100808 0
0.371334 0.103622 0
0.285064 0.075331 0
0.369427 0.102487 0
0.193205 0.026467 0
0.192856 0.0178437 0
0.193393 0.0415398 0
0.37116 0.102631 0
0.355102 0.098715 0
0.371016 0.101729 0
0.371678 0.102352 0
0.19443 0.0407906 0
0.365303 0.0994173 0
0.117781 -0.016378 0
0.349412 0.0955987 0
0.370563 0.100595 0
0.280166 0.0713176 0
0.371448 0.100693 0
0.369949 0.0993658 0
0.371056 0.100982 0
0.34386 0.092461 0
0.0651776 -0.011192 0
0.195845 0.0392725 0
0.370994 0.10018 0
0.193512 0.0162073 0
0.188843 0.00227391 0
0 0 0
0.368601 0.097465 0
0.370912 0.0993638 0
0.358256 0.0945331 0
0.191833 0.00813993 0
0.370968 0.0982163 0
0.195014 0.0232607 0
0.336524 0.0878109 0
0.370765 0.0980931 0
0.197231 0.0378176 0
0.370253 0.0991184 0
0.366697 0.0953564 0
0.370603 0.0967708 0
0.273867 0.0650223 0
0.370108 0.0973795 0
0.329395 0.0833166 0
0.369476 0.0941761 0
0.363457 0.0920203 0
0.370305 0.0947762 0
0.194211 0.0144883 0
0.369217 0.0970674 0
0.198989 0.035504 0
0.3476 0.0867752 0
0.369135 0.0961576 0
0.369857 0.0946644 0
0.369961 0.092734 0
0.369051 0.0952275 0
0.359581 0.088565 0
0.181525 -0.00768445 0
0.320112 0.0770582 0
0.368915 0.0938353 0
0.369198 0.0898197 0
0.200604 0.0333417 0
0.368772 0.0924264 0
0.3655 0.0879517 0
0.367739 0.0940476 0
0.369425 0.0905882 0
0.2657 0.0563632 0
0.197241 0.0198247 0
0.194858 0.0128579 0
0.353679 0.0835412 0
0.368556 0.0903675 0
0.311191 0.0711657 0
0.367578 0.0921265 0
0.368118 0.0868774 0
0.332318 0.0758296 0
0.368333 0.0883176 0
0.367323 0.0892765 0
0.202533 0.0304756 0
0.366234 0.0909149 0
0.347238 0.0785745 0
0.368489 0.0847984 0
0.366142 0.089932 0
0.365977 0.0827946 0
0.368006 0.0854239 0
0.366048 0.0889541 0
0.19095 -0.000219491 0
0.299722 0.0635219 0
0.357244 0.0790547 0
0.195606 0.0111074 0
0.36591 0.0875219 0
0.366929 0.0851992 0
0.367683 0.0826094 0
0.365771 0.0861046 0
0.363125 0.078722 0
0.204174 0.0277894 0
0.337995 0.0718742 0
0.25513 0.0457024 0
0.365574 0.0840794 0
0.364218 0.0865697 0
0.194646 0.00424924 0
0.288953 0.056461 0
0.367095 0.0788123 0
0.365378 0.0820957 0
0.199801 0.0161051 0
0.365849 0.0770503 0
0.364044 0.084632 0
0.366364 0.0796442 0
0.311493 0.0618974 0
0.196331 0.00942662 0
0.358198 0.0732775 0
0.328392 0.065398 0
0.365099 0.0793462 0
0.363786 0.0818498 0
0.366356 0.0751763 0
0.206043 0.0246525 0
0.342652 0.0672094 0
0.362253 0.0822986 0
0.364824 0.0766905 0
0.362163 0.0813445 0
0.275606 0.0479486 0
0.363412 0.0779771 0
0.362074 0.0804038 0
0.352348 0.0678972 0
0.361945 0.0790432 0
0.365528 0.0724561 0
0.364733 0.0704479 0
0.364451 0.0731158 0
0.361817 0.0777094 0
0.315156 0.0572074 0
0.197211 0.00757009 0
0.359045 0.0671293 0
0.207525 0.0216812 0
0.192968 -0.00270614 0
0.361634 0.0758207 0
0.362894 0.0727847 0
0.242265 0.0337697 0
0.188771 -0.0072385 0
0.364097 0.0697249 0
0.361455 0.0739836 0
0.263796 0.0403509 0
0.359788 0.0767496 0
0.36243 0.0658675 0
0.343171 0.0609721 0
0.18417 -0.0109756 0
0.28493 0.0457029 0
0.359623 0.074942 0
0.361205 0.0714484 0
0.202544 0.0119539 0
0.301882 0.049406 0
0.198116 0.00579385 0
0.363562 0.0652954 0
0.359384 0.0723846 0
0.360964 0.0690066 0
0.363495 0.0635378 0
0.31951 0.0523812 0
0.362213 0.0661166 0
0.209152 0.0183811 0
0.357982 0.0600452 0
0.197282 0.000345209 0
0.332899 0.0541277 0
0.359044 0.068859 0
0.360632 0.0657324 0
0.357357 0.0714531 0
0.250439 0.0318402 0
0.157146 -0.0192972 0
0.362953 0.06114 0
0.357282 0.0705858 0
0.357207 0.0697329 0
0.344647 0.0546222 0
0.3571 0.0685072 0
0.36031 0.0626066 0
0.284832 0.0401046 0
0.356993 0.0673073 0
0.358574 0.0641502 0
0.199211 0.00375976 0
0.352286 0.0543025 0
0.194839 -0.00519993 0
0.35684 0.0656152 0
0.361354 0.0578737 0
0.119542 -0.0180438 0
0.210399 0.015231 0
0.361556 0.0558763 0
0.317906 0.0456661 0
0.356689 0.0639684 0
0.229099 0.021615 0
0.359885 0.0585161 0
0.240099 0.0247814 0
0.357333 0.0527375 0
0.356474 0.0616956 0
0.255522 0.0287398 0
0.354428 0.0648796 0
0.357944 0.0580637 0
0.26914 0.0317231 0
0.354288 0.0632587 0
0.356262 0.0594982 0
0.359481 0.054651 0
0.205261 0.00708264 0
0.342619 0.0471522 0
0.359446 0.0508514 0
0.286909 0.0350876 0
0.200332 0.00179705 0
0.354085 0.0609824 0
0.355967 0.056536 0
0.302004 0.0374262 0
0.211712 0.0116413 0
0.353797 0.0578475 0
0.358931 0.0497033 0
0.318436 0.0391736 0
0.355676 0.0536932 0
0.359526 0.0479642 0
0.18658 -0.0142535 0
0.23014 0.0173262 0
0.357134 0.0504604 0
0.199748 -0.00375307 0
0.351525 0.0586775 0
0.196559 -0.00777399 0
0.35503 0.0446556 0
0.331008 0.0399801 0
0.351466 0.0579048 0
0.251857 0.0223831 0
0.353394 0.0536389 0
0.351406 0.0571444 0
0.35528 0.0499614 0
0.351321 0.0560595 0
0.201672 -0.000501982 0
0.358334 0.0450957 0
0.351237 0.0549948 0
0.342062 0.0396129 0
0.281649 0.0278149 0
0.351114 0.0534982 0
0.354894 0.0464117 0
0.350991 0.0520362 0
0.212742 0.00821741 0
0.352842 0.0481584 0
0.219402 0.0103678 0
0.349013 0.0386238 0
0.223989 0.0115984 0
0.350814 0.0500184 0
0.231324 0.0133963 0
0.313498 0.0314794 0
0.356169 0.0413155 0
0.356961 0.0394079 0
0.350638 0.04806 0
0.239017 0.0150712 0
0.354394 0.0418843 0
0.348009 0.0511539 0
0.202995 -0.00274867 0
0.251303 0.0175207 0
0.353346 0.0364637 0
0.347898 0.0497003 0
0.207775 0.00118549 0
0.350389 0.0454178 0
0.198147 -0.0103426 0
0.263317 0.0195086 0
0.193065 -0.013739 0
0.352108 0.0412716 0
0.347739 0.0476785 0
0.35014 0.0428763 0
0.35393 0.0376411 0
0.279771 0.0217604 0
0.338117 0.0314838 0
0.35482 0.0341059 0
0.347512 0.0449062 0
0.213754 0.00415669 0
0.294465 0.0232369 0
0.202068 -0.00813642 0
0.3498 0.0395372 0
0.219346 0.00562845 0
0.188609 -0.0175924 0
0.347195 0.0411921 0
0.311168 0.0241438 0
0.228169 0.00740082 0
0.344608 0.0440787 0
0.204529 -0.00541638 0
0.353348 0.0323912 0
0.354324 0.0307949 0
0.349466 0.0363652 0
0.344559 0.0433821 0
0.344511 0.0426968 0
0.351196 0.0329873 0
0.344442 0.0417335 0
0.244928 0.0102639 0
0.324253 0.0242901 0
0.350095 0.0278536 0
0.344373 0.0407886 0
0.346762 0.036367 0
0.199589 -0.0129926 0
0 0 0
0.344275 0.0394736 0
0.349031 0.0323294 0
0.344176 0.0381904 0
0.352737 0.0276002 0
0.214584 0.000279014 0
0.120839 -0.0198165 0
0.335982 0.0233183 0
0.27158 0.0138008 0
0.215951 0.000590192 0
0.344038 0.0364322 0
0.217336 0.000871338 0
0.219513 0.00127968 0
0.3439 0.0347293 0
0.348622 0.0285554 0
0.222198 0.00178658 0
0.205976 -0.00805015 0
0.346194 0.0303359 0
0.343338 0.0219043 0
0.227054 0.00267381 0
0.343711 0.0324451 0
0.303726 0.0161988 0
0.232819 0.00365033 0
0.340519 0.0357009 0
0.210062 -0.00588766 0
0.350228 0.0235404 0
0.351342 0.0219322 0
0.343527 0.0302558 0
0.340439 0.0343986 0
0.24241 0.00511015 0
0.34814 0.0239307 0
0.204285 -0.0128477 0
0.340326 0.0326299 0
0.347797 0.0193991 0
0.200883 -0.0156394 0
0.252731 0.00637627 0
0.343284 0.0273962 0
0.190365 -0.0209211 0
0.34017 0.0302468 0
0.21528 -0.00436201 0
0.345501 0.0231368 0
0.26777 0.00781713 0
0.343054 0.0246911 0
0.216609 -0.00424777 0
0.330579 0.0152967 0
0.347744 0.0196825 0
0.160112 -0.0246933 0
0.207583 -0.011192 0
0.349167 0.0168025 0
0.339957 0.027098 0
0.219062 -0.00404891 0
0.282126 0.00862995 0
0.342764 0.0212616 0
0.224553 -0.00348957 0
0.336502 0.0279438 0
0.196303 -0.0203097 0
0.33647 0.0273312 0
0.299465 0.00887591 0
0.339675 0.0230542 0
0.336438 0.0267304 0
0.336395 0.0259053 0
0.202029 -0.0183789 0
0.34724 0.014603 0
0.336353 0.0250986 0
0.348436 0.0133123 0
0.342501 0.0180608 0
0.236569 -0.00229313 0
0.336295 0.0239954 0
0.313734 0.00844104 0
0.344735 0.0149317 0
0.336239 0.0229223 0
0.343992 0.0108778 0
0.215881 -0.00880085 0
0.21624 -0.00883604 0
0.336162 0.0214709 0
0.339321 0.0180355 0
0.209023 -0.0143095 0
0.216601 -0.00887423 0
0.217203 -0.00891323 0
0.336088 0.0200687 0
0.342181 0.0141066 0
0.258967 -0.000547568 0
0.217858 -0.00894513 0
0.327156 0.0068946 0
0.34664 0.00993623 0
0.219098 -0.0089236 0
0.206376 -0.0179652 0
0.33599 0.0182033 0
0.191752 -0.024268 0
0.220611 -0.00885586 0
0.335899 0.0164153 0
0.223501 -0.0086345 0
0.212334 -0.0140673 0
0.0668442 -0.0127954 0
0.341888 0.0104038 0
0.203022 -0.021106 0
0.335862 0.00503314 0
0.332049 0.0192493 0
0.338901 0.0120122 0
0.227259 -0.00829271 0
0.335779 0.0140832 0
0.290576 0.000513122 0
0.332005 0.0181197 0
0.121719 -0.0215843 0
0.233965 -0.00770514 0
0.331942 0.0166344 0
0.343899 0.00566352 0
0.33567 0.0118611 0
0.345212 0.00430197 0
0.331858 0.0146774 0
0.210499 -0.0180233 0
0.242052 -0.00712141 0
0.216415 -0.0139689 0
0.341549 0.00585679 0
0.341202 0.00204791 0
0.216936 -0.0141137 0
0.335528 0.00901657 0
0.331747 0.0121211 0
0.217753 -0.0143283 0
0.254723 -0.00650063 0
0.338406 0.00487024 0
0.320547 -0.00139552 0
0.219205 -0.0146116 0
0.203896 -0.0239281 0
0.335389 0.00629194 0
0.267969 -0.00637227 0
0.341162 0.00150099 0
0.331605 0.00883398 0
0.34284 -0.000986576 0
0.192861 -0.0276294 0
0.327453 0.0112885 0
0.222348 -0.0149011 0
0.327444 0.0107622 0
0.327435 0.0102451 0
0.327425 0.00955735 0
0.335212 0.00283688 0
0.198495 -0.0269205 0
0.208201 -0.0236274 0
0.285156 -0.00690804 0
0.327416 0.00888286 0
0.211731 -0.0217107 0
0.331424 0.00467575 0
0.327403 0.00797859 0
0.229972 -0.0150651 0
0.327391 0.00709374 0
0.216915 -0.0189414 0
0.217109 -0.0190321 0
0.217315 -0.0191201 0
0.340538 -0.00384442 0
0.341899 -0.00499362 0
0.327373 0.00590942 0
0.335009 -0.000517757 0
0.300324 -0.00815742 0
0.217608 -0.0192556 0
0.217908 -0.0193911 0
0.327355 0.00475259 0
0.204606 -0.0267378 0
0.336577 -0.00710546 0
0.337714 -0.00371616 0
0.218368 -0.0195813 0
0.327328 0.00321597 0
0.218825 -0.0197773 0
0.331192 -0.000550547 0
0.246722 -0.0151792 0
0.21957 -0.0200329 0
0.3273 0.00171412 0
0.315568 -0.0106327 0
0.214673 -0.0233003 0
0.334717 -0.00474851 0
0.220383 -0.0202851 0
0 0 0
0.339781 -0.00895216 0
0.327262 -0.000264424 0
0.221962 -0.0205537 0
0.19363 -0.0309901 0
0.322409 0.00254844 0
0.161558 -0.0302682 0
0.327216 -0.00220558 0
0.212828 -0.0260575 0
0.223999 -0.0207736 0
0.322397 0.00152652 0
0.326025 -0.0133206 0
0.122118 -0.0234912 0
0.334381 -0.00886068 0
0.322378 0.000218657 0
0.205196 -0.0296715 0
0.275061 -0.0160495 0
0.330842 -0.00710727 0
0.227991 -0.0209641 0
0.327137 -0.00473988 0
0.217732 -0.0245241 0
0.322353 -0.00148011 0
0.217975 -0.024741 0
0.218401 -0.0250441 0
0.233358 -0.0210991 0
0.337955 -0.0151435 0
0.327044 -0.00723206 0
0.336573 -0.0139455 0
0.322318 -0.00370079 0
0.209568 -0.0299632 0
0.219071 -0.0254803 0
0.332776 -0.0171977 0
0.333884 -0.0139349 0
0.242525 -0.0213967 0
0.322265 -0.00660691 0
0.326899 -0.0104475 0
0.220087 -0.0261175 0
0.307052 -0.0195927 0
0.205612 -0.032596 0
0.199724 -0.0335287 0
0.213595 -0.0303647 0
0.330254 -0.0152009 0
0.253361 -0.0220312 0
0.194132 -0.0343579 0
0.317245 -0.00576003 0
0.221842 -0.0270288 0
0.326731 -0.0135986 0
0.317248 -0.00627328 0
0.322177 -0.0103929 0
0.334984 -0.0209433 0
0.31725 -0.00678092 0
0.333316 -0.0188413 0
0.317254 -0.0074295 0
0.317257 -0.00807138 0
0.317259 -0.00890862 0
0.218299 -0.0299696 0
0.268675 -0.0235011 0
0.218437 -0.0300783 0
0.218573 -0.0301878 0
0.31726 -0.00973765 0
0.218762 -0.0303516 0
0.225908 -0.0282824 0
0.326478 -0.0175849 0
0.21895 -0.0305166 0
0.317257 -0.0108305 0
0.219214 -0.0307588 0
0.322018 -0.0152741 0
0.317251 -0.0119128 0
0.219478 -0.0310034 0
0.219845 -0.0313556 0
0.205881 -0.0356784 0
0.283587 -0.0257761 0
0.317237 -0.0133423 0
0.333912 -0.0257053 0
0.332437 -0.0247654 0
0.220212 -0.031712 0
0.326184 -0.0214698 0
0.317219 -0.0147574 0
0.326646 -0.0271339 0
0.216282 -0.03379 0
0.220728 -0.0322137 0
0.329246 -0.0249126 0
0.236291 -0.0300985 0
0.317187 -0.016619 0
0.214123 -0.0353445 0
0.221235 -0.0327248 0
0.19433 -0.0377181 0
0.321731 -0.0214459 0
0.122081 -0.0253355 0
0.317147 -0.0184579 0
0.299971 -0.0294866 0
0.210247 -0.0370729 0
0.222054 -0.0334011 0
0.325751 -0.0262713 0
0.311222 -0.0153077 0
0.331388 -0.0304291 0
0.317083 -0.0208534 0
0.311227 -0.0163839 0
0.222986 -0.0340732 0
0.205968 -0.0387504 0
0.31123 -0.0177165 0
0.218785 -0.036147 0
0.218994 -0.0363685 0
0.317006 -0.0232107 0
0.312244 -0.0334044 0
0.258035 -0.0332027 0
0.311228 -0.0194067 0
0.219308 -0.036698 0
0.22496 -0.0348734 0
0.325251 -0.0309308 0
0.219763 -0.0371818 0
0.200035 -0.0401441 0
0.321223 -0.0290636 0
0.311216 -0.021581 0
0.316885 -0.0262349 0
0.227627 -0.0356657 0
0.220404 -0.0378842 0
0.161488 -0.035994 0
0.328855 -0.0370993 0
0.214233 -0.0402746 0
0.311186 -0.0243916 0
0.327616 -0.0362559 0
0.194277 -0.0410846 0
0.316741 -0.0292001 0
0.321146 -0.0385515 0
0.221274 -0.0388963 0
0.232898 -0.0367448 0
0.205875 -0.0420095 0
0.324536 -0.0365493 0
0.311118 -0.0280112 0
0 0 0
0.316521 -0.0329354 0
0.289037 -0.0389175 0
0.30512 -0.0246982 0
0.222487 -0.0403328 0
0.240022 -0.0380543 0
0.305123 -0.0252727 0
0.305126 -0.0258431 0
0.0665907 -0.0144716 0
0.218683 -0.0422856 0
0.305129 -0.0265394 0
0.320356 -0.0382266 0
0.218792 -0.0424038 0
0.218902 -0.0425223 0
0.305131 -0.0272308 0
0.324635 -0.0432072 0
0.219055 -0.0426981 0
0.310983 -0.0326234 0
0.316264 -0.036583 0
0.305132 -0.0280966 0
0.219207 -0.0428747 0
0.323726 -0.041963 0
0.21942 -0.0431329 0
0.305131 -0.0289557 0
0.219631 -0.043393 0
0.25137 -0.0403461 0
0.305128 -0.0300509 0
0.224574 -0.0423773 0
0.219925 -0.043768 0
0.209992 -0.0450149 0
0.121542 -0.0273566 0
0.305122 -0.0311363 0
0.205593 -0.0452536 0
0.220213 -0.044147 0
0.19395 -0.0444421 0
0.305109 -0.0325334 0
0.220605 -0.0446857 0
0.315885 -0.0410866 0
0.213926 -0.0458856 0
0.216211 -0.0456697 0
0.305092 -0.0339158 0
0.220987 -0.0452315 0
0.31073 -0.0384105 0
0.264169 -0.0435424 0
0.305063 -0.0356981 0
0.323894 -0.0488535 0
0.221497 -0.0459925 0
0.32252 -0.0483405 0
0.199456 -0.0467812 0
0.229408 -0.0455066 0
0.312756 -0.0486938 0
0.305027 -0.0374583 0
0.221985 -0.0467663 0
0.315447 -0.0454633 0
0.31891 -0.0489248 0
0.304968 -0.0397161 0
0.222631 -0.0478116 0
0.279733 -0.0485596 0
0.205092 -0.0487088 0
0.297888 -0.0355724 0
0.310278 -0.045531 0
0.218034 -0.0491585 0
0.304897 -0.0419411 0
0.297894 -0.0368078 0
0.2182 -0.049393 0
0.223254 -0.0488732 0
0.218448 -0.0497417 0
0.193384 -0.0477993 0
0.297896 -0.0382677 0
0.314817 -0.0507418 0
0.321107 -0.0544094 0
0.218804 -0.0502529 0
0.304786 -0.0447658 0
0.297892 -0.0400402 0
0.224111 -0.0502968 0
0.242171 -0.0506689 0
0.2193 -0.0509918 0
0.213134 -0.0514207 0
0.293057 -0.054134 0
0.297877 -0.0422362 0
0.304654 -0.0475415 0
0.219974 -0.0520451 0
0.224987 -0.0517697 0
0.314096 -0.0558553 0
0.297842 -0.0449897 0
0.204396 -0.0521417 0
0.309506 -0.054089 0
0.304455 -0.0510148 0
0.220867 -0.0535272 0
0.120562 -0.0292282 0
0.159917 -0.0418242 0
0.317183 -0.0611902 0
0.227072 -0.0536639 0
0.20851 -0.0538088 0
0.29777 -0.0484556 0
0.316638 -0.0610901 0
0.304412 -0.0611533 0
0.19257 -0.0511382 0
0.304222 -0.054416 0
0.222021 -0.0555961 0
0.313084 -0.0618771 0
0.216797 -0.0558837 0
0.290459 -0.0463114 0
0.21688 -0.0560048 0
0.216962 -0.0561262 0
0.230187 -0.0556617 0
0.198026 -0.0534302 0
0.290462 -0.0469786 0
0.266915 -0.0589596 0
0.21708 -0.0563055 0
0.297634 -0.0528032 0
0.217197 -0.0564854 0
0.290465 -0.0476423 0
0.217363 -0.0567472 0
0.290467 -0.0484142 0
0.217528 -0.0570104 0
0.30388 -0.0585974 0
0.290468 -0.0491816 0
0.217759 -0.0573879 0
0.290467 -0.0500991 0
0.217987 -0.0577682 0
0.203422 -0.0558028 0
0.290464 -0.0510108 0
0.211749 -0.0575733 0
0.310103 -0.067256 0
0.218301 -0.0583063 0
0.30824 -0.0641258 0
0.290458 -0.0521259 0
0.223386 -0.0584943 0
0.218609 -0.0588502 0
0.236551 -0.0585007 0
0.29739 -0.0582033 0
0.290448 -0.0532329 0
0.303485 -0.0626763 0
0.311943 -0.0676831 0
0.213804 -0.058762 0
0 0 0
0.219018 -0.0596113 0
0.290432 -0.0546088 0
0.191529 -0.0544654 0
0.219418 -0.0603841 0
0.290411 -0.0559733 0
0.290378 -0.0576838 0
0.219934 -0.0614538 0
0.245083 -0.0621357 0
0.302924 -0.067595 0
0.290338 -0.0593777 0
0.296966 -0.0648102 0
0.220419 -0.0625505 0
0.22535 -0.0625905 0
0.310886 -0.0741852 0
0.202252 -0.059431 0
0.290275 -0.0615046 0
0.310325 -0.074396 0
0.293269 -0.071208 0
0.11905 -0.0312984 0
0.221009 -0.064051 0
0.214794 -0.0632609 0
0.2902 -0.0636065 0
0.214934 -0.0635041 0
0.302285 -0.0723717 0
0.21514 -0.0638652 0
0.281722 -0.0585307 0
0.257163 -0.0677731 0
0.306248 -0.0755855 0
0.215432 -0.0643936 0
0.221505 -0.0655954 0
0.290088 -0.0662338 0
0.281727 -0.0599851 0
0.209848 -0.0636052 0
0.190268 -0.0577596 0
0.215836 -0.0651562 0
0.281726 -0.0616285 0
0.195781 -0.0600684 0
0.296257 -0.0727414 0
0.205507 -0.0633936 0
0.289956 -0.0688237 0
0.216374 -0.0662428 0
0.222093 -0.0676243 0
0.281716 -0.0635357 0
0.308404 -0.0806423 0
0.230546 -0.0689683 0
0.301407 -0.0780025 0
0.281692 -0.0658013 0
0.21706 -0.0677723 0
0.200746 -0.0632895 0
0.269574 -0.0746491 0
0.289763 -0.0720297 0
0.222577 -0.0696879 0
0.156876 -0.0476548 0
0.281646 -0.068541 0
0.289539 -0.0751807 0
0.217875 -0.0699007 0
0.0642977 -0.0161148 0
0.300421 -0.0834489 0
0.28156 -0.0718898 0
0.188791 -0.0610267 0
0.223167 -0.0723673 0
0.295113 -0.0820465 0
0.289219 -0.0790273 0
0.301948 -0.0867356 0
0.212168 -0.0704137 0
0.212233 -0.0705375 0
0.212297 -0.0706616 0
0.212391 -0.0708448 0
0.281662 -0.0836206 0
0.212484 -0.0710287 0
0.218787 -0.0728177 0
0.303198 -0.0881827 0
0.212618 -0.071296 0
0.281411 -0.0759975 0
0.21275 -0.0715645 0
0.212935 -0.0719489 0
0.207212 -0.0701382 0
0.199047 -0.0670941 0
0.27268 -0.0706822 0
0.223815 -0.0751182 0
0.213116 -0.0723357 0
0.117125 -0.0331089 0
0.288852 -0.0827944 0
0.272683 -0.0714755 0
0.244919 -0.079325 0
0.213364 -0.0728809 0
0.272684 -0.0722661 0
0.299049 -0.0896876 0
0.213604 -0.0734307 0
0.272684 -0.0731452 0
0.272682 -0.0740209 0
0.213923 -0.0741935 0
0.281158 -0.0810194 0
0.272677 -0.0750199 0
0.208662 -0.0727051 0
0.214228 -0.0749645 0
0.27267 -0.0760146 0
0.219769 -0.0767475 0
0.288338 -0.0873142 0
0.192743 -0.0666611 0
0.272657 -0.0771767 0
0.187124 -0.0642419 0
0.289535 -0.0918792 0
0.22589 -0.0787317 0
0.21462 -0.0760179 0
0.272642 -0.078333 0
0.293329 -0.0926851 0
0.214988 -0.0770836 0
0.272618 -0.0797113 0
0.297515 -0.0957472 0
0 0 0
0.272589 -0.0810816 0
0.28074 -0.0871013 0
0.287755 -0.0917222 0
0.215429 -0.0785218 0
0.272546 -0.0827389 0
0.196958 -0.0711113 0
0.229372 -0.082767 0
0.272495 -0.0843846 0
0.215842 -0.07998 0
0.200755 -0.0735893 0
0.220672 -0.0820058 0
0.272422 -0.0863914 0
0.20865 -0.0780221 0
0.208771 -0.0782694 0
0.208945 -0.078636 0
0.204065 -0.0764687 0
0.28696 -0.0969096 0
0.216314 -0.0819225 0
0.293175 -0.10092 0
0.209191 -0.0791711 0
0.272337 -0.0883808 0