# vtk DataFile Version 3.0
File generated from DClib
ASCII

DATASET UNSTRUCTURED_GRID
POINTS 1909 float
50 0 0 
48.75 0 0 
50 1.66667 0 
47.5 0 0 
50 3.33333 0 
46.25 0 0 
50 5 0 
45 0 0 
43.75 0 0 
50 6.66667 0 
43 2 0 
42.5 0 0 
50 8.33333 0 
43 4.66667 0 
41.25 0 0 
41.075 2 0 
50 10 0 
40 0 0 
43 7.33333 0 
39.15 2 0 
38.75 0 0 
43 10 0 
37.5 0 0 
37.225 2 0 
36.25 0 0 
36 4 0 
35.3 2 0 
36 5 0 
35 0 0 
35.325 4 0 
36 6 0 
36 7 0 
34.65 4 0 
36 8 0 
33.75 0 0 
33.975 4 0 
36 9 0 
33.375 2 0 
33.3 4 0 
36 10 0 
32.5 0 0 
32.625 4 0 
33 6 0 
31.95 4 0 
33 7.45455 0 
31.45 2 0 
31.25 0 0 
31.95 6 0 
33 8.79545 0 
31.275 4 0 
33 10 0 
30.6 4 0 
30 0 0 
30.9 6 0 
29.925 4 0 
29.525 2 0 
29.85 6 0 
29.25 4 0 
28.75 0 0 
30 8 0 
30 8.45455 0 
28.575 4 0 
29.625 8 0 
30 8.90909 0 
28.8 6 0 
30 9.25 0 
29.782 8.90909 0 
30 9.59091 0 
29.9487 9.59091 0 
29.25 8 0 
29.7462 9.25 0 
30 9.79545 0 
29.897 9.59091 0 
29.564 8.90909 0 
29.9547 9.79545 0 
29.3462 8.45455 0 
29.84 9.59091 0 
30 10 0 
29.8975 9.79545 0 
29.9882 10 0 
29.9902 10.0098 0 
29.7827 9.59091 0 
29.9765 10 0 
29.9804 10.0196 0 
29.9667 10.0098 0 
29.9591 10 0 
29.9686 10.0196 0 
29.9659 10.0341 0 
29.9569 10.0196 0 
29.9418 10 0 
29.9395 10.0196 0 
29.9515 10.0485 0 
29.932 10.0098 0 
29.9424 10.0341 0 
29.8241 9.79545 0 
29.7181 9.59091 0 
29.9166 10 0 
29.9397 10.0485 0 
29.9222 10.0196 0 
29.9279 10.0485 0 
29.9305 10.0695 0 
29.8914 10 0 
29.9077 10.0341 0 
27.9 4 0 
29.897 10.0196 0 
29.9106 10.0485 0 
29.8817 10.0098 0 
29.907 10.0695 0 
29.8933 10.0485 0 
29.9095 10.0905 0 
29.8719 10.0196 0 
27.6 2 0 
29.8556 10 0 
29.8978 10.0905 0 
29.6531 9.59091 0 
29.3437 8.90909 0 
27.5 0 0 
29.8681 10.0485 0 
29.886 10.0905 0 
29.8574 10.0341 0 
29.4839 9.25 0 
29.8723 10.0695 0 
29.7289 9.79545 0 
29.836 10.0196 0 
29.8687 10.0905 0 
29.8197 10 0 
29.8797 10.1203 0 
29.843 10.0485 0 
29.8513 10.0905 0 
29.81 10.0098 0 
29.8561 10.1203 0 
29.8002 10.0196 0 
29.8221 10.0695 0 
29.8072 10.0485 0 
29.8262 10.0905 0 
29.5782 9.59091 0 
29.8498 10.1502 0 
29.7695 10 0 
29.7858 10.0341 0 
29.838 10.1502 0 
29.8215 10.1203 0 
29.8011 10.0905 0 
29.8262 10.1502 0 
29.7714 10.0485 0 
28.875 8 0 
29.75 10.0196 0 
29.8089 10.1502 0 
29.7654 10.0905 0 
29.7193 10 0 
29.7916 10.1502 0 
29.7505 10.0695 0 
29.8079 10.1921 0 
29.7713 10.1203 0 
29.7096 10.0098 0 
29.6047 9.79545 0 
29.503 9.59091 0 
29.7213 10.0485 0 
29.7665 10.1502 0 
29.6999 10.0196 0 
29.7844 10.1921 0 
29.7296 10.0905 0 
29.6856 10.0341 0 
29.7414 10.1502 0 
29.7497 10.1921 0 
29.6503 10 0 
29.7661 10.2339 0 
29.6712 10.0485 0 
29.6999 10.1203 0 
29.7543 10.2339 0 
29.6796 10.0905 0 
29.7057 10.1502 0 
29.7425 10.2339 0 
29.1235 8.90909 0 
29.6309 10.0196 0 
29.6504 10.0695 0 
29.4146 9.59091 0 
29.7252 10.2339 0 
29.6996 10.1921 0 
29.6701 10.1502 0 
29.7079 10.2339 0 
29.6296 10.0905 0 
29.5813 10 0 
29.6023 10.0485 0 
29.5716 10.0098 0 
29.6828 10.2339 0 
29.7086 10.2914 0 
29.2101 9.25 0 
29.562 10.0196 0 
29.6201 10.1502 0 
29.6578 10.2339 0 
29.4428 9.79545 0 
29.5999 10.1203 0 
29.6849 10.2914 0 
29.6283 10.1921 0 
29.5477 10.0341 0 
29.3259 9.59091 0 
29.5608 10.0905 0 
29.5335 10.0485 0 
29.6221 10.2339 0 
29.6503 10.2914 0 
29.5702 10.1502 0 
29.4881 10 0 
29.5128 10.0695 0 
29.6511 10.3489 0 
29.5866 10.2339 0 
29.6392 10.3489 0 
29.4689 10.0196 0 
29.6002 10.2914 0 
29.6273 10.3489 0 
29.4921 10.0905 0 
29.61 10.3489 0 
29.5286 10.1921 0 
29.5016 10.1502 0 
29.5368 10.2339 0 
29.5926 10.3489 0 
29.4405 10.0485 0 
29.2199 9.59091 0 
29.4626 10.1203 0 
29.3949 10 0 
28.9 8.90909 0 
29.5676 10.3489 0 
29.5291 10.2914 0 
29.3853 10.0098 0 
28.6923 8.45455 0 
29.487 10.2339 0 
29.5426 10.3489 0 
29.3758 10.0196 0 
29.5734 10.4266 0 
29.4331 10.1502 0 
29.3993 10.0905 0 
28.5 8 0 
29.3617 10.0341 0 
29.5496 10.4266 0 
29.5071 10.3489 0 
29.2327 9.79545 0 
29.3475 10.0485 0 
29.1136 9.59091 0 
29.4187 10.2339 0 
29.5148 10.4266 0 
29.4716 10.3489 0 
29.3918 10.1921 0 
29.3271 10.0695 0 
29.4298 10.2914 0 
29.2714 10 0 
29.3406 10.1502 0 
28.9208 9.25 0 
29.3066 10.0905 0 
29.4648 10.4266 0 
29.422 10.3489 0 
29.4958 10.5042 0 
29.2524 10.0196 0 
27.75 6 0 
29.3504 10.2339 0 
29.4837 10.5042 0 
29.4718 10.5042 0 
29.2774 10.1203 0 
29.4543 10.5042 0 
29.3724 10.3489 0 
29.2244 10.0485 0 
29.4369 10.5042 0 
29.3938 10.4266 0 
28.9853 9.59091 0 
29.2481 10.1502 0 
28.6766 8.90909 0 
29.4119 10.5042 0 
29.2934 10.2914 0 
27.225 4 0 
29.148 10 0 
29.2582 10.2339 0 
29.1837 10.0905 0 
29.3869 10.5042 0 
29.1385 10.0098 0 
29.3044 10.3489 0 
29.1291 10.0196 0 
29.2072 10.1921 0 
29.3514 10.5042 0 
29.1152 10.0341 0 
29.3929 10.6071 0 
29.2949 10.4266 0 
29.1013 10.0485 0 
29.3686 10.6071 0 
29.316 10.5042 0 
29.2364 10.3489 0 
28.9623 9.79545 0 
29.1257 10.1502 0 
29.1662 10.2339 0 
29.0811 10.0695 0 
28.8566 9.59091 0 
29.3336 10.6071 0 
29.2666 10.5042 0 
29.0609 10.0905 0 
28.9875 10 0 
29.2835 10.6071 0 
29.1448 10.3489 0 
29.0321 10.1203 0 
29.2173 10.5042 0 
29.1098 10.2914 0 
28.125 8 0 
28.9688 10.0196 0 
29.1594 10.4266 0 
28.611 9.25 0 
29.29 10.71 0 
28.4486 8.90909 0 
29.0443 10.2339 0 
29.0033 10.1502 0 
29.2777 10.71 0 
28.9413 10.0485 0 
29.2128 10.6071 0 
29.2655 10.71 0 
29.1497 10.5042 0 
29.2478 10.71 0 
28.7003 9.59091 0 
29.0533 10.3489 0 
29.2303 10.71 0 
28.9629 10.1921 0 
28.9013 10.0905 0 
29.2051 10.71 0 
29.0822 10.5042 0 
29.1801 10.71 0 
28.827 10 0 
29.1144 10.6071 0 
28.8177 10.0098 0 
28.9225 10.2339 0 
28.8085 10.0196 0 
29.1447 10.71 0 
28.7949 10.0341 0 
28.8443 10.1502 0 
28.977 10.4266 0 
28.9322 10.3489 0 
29.1094 10.71 0 
28.7813 10.0485 0 
28.9912 10.5042 0 
29.1562 10.8438 0 
28.5436 9.59091 0 
28.7615 10.0695 0 
28.8669 10.2914 0 
29.1313 10.8438 0 
28.6184 9.79545 0 
29.0602 10.71 0 
28.2207 8.90909 0 
28.7418 10.0905 0 
28.0378 8.45455 0 
28.9798 10.6071 0 
29.0958 10.8438 0 
29.0112 10.71 0 
28.9005 10.5042 0 
28.7136 10.1203 0 
28.7644 10.2339 0 
28.8113 10.3489 0 
29.0454 10.8438 0 
28.6223 10 0 
28.6854 10.1502 0 
28.2746 9.25 0 
28.9441 10.71 0 
28.6042 10.0196 0 
27.75 8 0 
28.9747 10.8438 0 
28.6459 10.1921 0 
28.5773 10.0485 0 
29.0225 10.9775 0 
28.3532 9.59091 0 
28.7804 10.5042 0 
28.736 10.4266 0 
28.8772 10.71 0 
29.0097 10.9775 0 
28.9971 10.9775 0 
28.799 10.6071 0 
28.9791 10.9775 0 
28.5384 10.0905 0 
28.6064 10.2339 0 
28.6543 10.3489 0 
28.9611 10.9775 0 
28.8769 10.8438 0 
27.9867 8.90909 0 
26.25 0 0 
28.9358 10.9775 0 
28.7871 10.71 0 
28.9106 10.9775 0 
28.6607 10.5042 0 
28.4177 10 0 
26.55 4 0 
28.552 10.2914 0 
28.483 10.1502 0 
28.4087 10.0098 0 
28.8751 10.9775 0 
28.3998 10.0196 0 
28.3866 10.0341 0 
28.8399 10.9775 0 
28.6974 10.71 0 
28.3735 10.0485 0 
28.1625 9.59091 0 
28.7436 10.8438 0 
28.4976 10.3489 0 
28.3543 10.0695 0 
28.791 10.9775 0 
28.4052 10.2339 0 
28.3352 10.0905 0 
28.8519 11.1481 0 
28.1869 9.79545 0 
28.5607 10.6071 0 
28.5053 10.5042 0 
28.7423 10.9775 0 
28.8258 11.1481 0 
28.308 10.1203 0 
28.5787 10.71 0 
27.904 9.25 0 
28.7893 11.1481 0 
28.424 10.4266 0 
27.7528 8.90909 0 
28.2807 10.1502 0 
28.6758 10.9775 0 
27.375 8 0 
28.7383 11.1481 0 
28.1619 10 0 
28.5649 10.8438 0 
28.2425 10.1921 0 
28.6096 10.9775 0 
28.1444 10.0196 0 
28.298 10.3489 0 
28.4605 10.71 0 
26.7 6 0 
27.9315 9.59091 0 
28.3503 10.5042 0 
28.6676 11.1481 0 
28.1187 10.0485 0 
28.2042 10.2339 0 
28.5207 10.9775 0 
28.0813 10.0905 0 
28.6814 11.3186 0 
27.3818 8.45455 0 
28.6679 11.3186 0 
28.1516 10.2914 0 
28.5703 11.1481 0 
28.6544 11.3186 0 
28.6358 11.3186 0 
27.5109 8.90909 0 
28.3072 10.71 0 
28.6173 11.3186 0 
28.2524 10.6071 0 
28.4322 10.9775 0 
28.028 10.1502 0 
28.5915 11.3186 0 
28.0989 10.3489 0 
28.33 10.8438 0 
28.5658 11.3186 0 
28.153 10.5042 0 
27.9061 10 0 
27.8975 10.0098 0 
28.5303 11.3186 0 
28.4384 11.1481 0 
27.7002 9.59091 0 
27.889 10.0196 0 
27.8765 10.0341 0 
28.4949 11.3186 0 
28.3154 10.9775 0 
27.9532 10.2339 0 
27.8639 10.0485 0 
28.0276 10.4266 0 
28.1544 10.71 0 
27.8457 10.0695 0 
27.4909 9.25 0 
28.4463 11.3186 0 
27 8 0 
27.8275 10.0905 0 
28.3979 11.3186 0 
27.8015 10.1203 0 
27.6542 9.79545 0 
25.675 2 0 
28.1991 10.9775 0 
27.2691 8.90909 0 
27.9563 10.5042 0 
28.4682 11.5318 0 
28.2625 11.1481 0 
27.7755 10.1502 0 
28.3322 11.3186 0 
27.8502 10.3489 0 
28.4401 11.5318 0 
25.875 4 0 
27.7391 10.1921 0 
28.4019 11.5318 0 
28.0268 10.8438 0 
28.2668 11.3186 0 
27.9602 10.71 0 
28.3498 11.5318 0 
27.4223 9.59091 0 
27.7026 10.2339 0 
27.5927 10 0 
28.0486 10.9775 0 
27.8616 10.6071 0 
27.5762 10.0196 0 
28.1794 11.3186 0 
28.2786 11.5318 0 
27.5519 10.0485 0 
27.6524 10.2914 0 
28.0319 11.1481 0 
27.7108 10.5042 0 
27.5167 10.0905 0 
27.0169 8.90909 0 
28.0924 11.3186 0 
27.6021 10.3489 0 
27.8988 10.9775 0 
28.1818 11.5318 0 
27.7667 10.71 0 
26.625 8 0 
28.255 11.745 0 
27.4664 10.1502 0 
28.2402 11.745 0 
28.2256 11.745 0 
28.2059 11.745 0 
27.978 11.3186 0 
26.7234 8.45455 0 
27.0259 9.25 0 
27.5342 10.4266 0 
28.1863 11.745 0 
27.1442 9.59091 0 
28.0516 11.5318 0 
28.1598 11.745 0 
27.3959 10.2339 0 
28.1334 11.745 0 
27.2793 10 0 
27.2714 10.0098 0 
27.2635 10.0196 0 
27.7086 10.9775 0 
27.6431 10.8438 0 
28.0975 11.745 0 
27.8643 11.3186 0 
27.4661 10.5042 0 
27.2518 10.0341 0 
27.2401 10.0485 0 
28.0617 11.745 0 
26.7648 8.90909 0 
27.5255 10.71 0 
27.7353 11.1481 0 
27.2231 10.0695 0 
28.0133 11.745 0 
27.2061 10.0905 0 
27.8791 11.5318 0 
27.2986 10.3489 0 
27.1818 10.1203 0 
27.9651 11.745 0 
27.3758 10.6071 0 
27.0077 9.79545 0 
27.7174 11.3186 0 
27.1576 10.1502 0 
25 0 0 
27.5193 10.9775 0 
27.9003 11.745 0 
27.1236 10.1921 0 
26.25 8 0 
27.9939 12.0061 0 
25.65 6 0 
27.8359 11.745 0 
26.8136 9.59091 0 
27.0896 10.2339 0 
27.9626 12.0061 0 
27.2853 10.71 0 
25.2 4 0 
27.5713 11.3186 0 
27.9218 12.0061 0 
26.4998 8.90909 0 
27.167 10.5042 0 
27.6541 11.5318 0 
27.0427 10.2914 0 
27.7503 11.745 0 
26.9033 10 0 
27.8677 12.0061 0 
26.8882 10.0196 0 
26.8659 10.0485 0 
26.9958 10.3489 0 
27.2836 10.9775 0 
27.6652 11.745 0 
27.3609 11.1481 0 
27.7955 12.0061 0 
26.499 9.25 0 
[...]
POINT_DATA 1909
SCALARS phi float 1
LOOKUP_TABLE default
VECTORS Displacement float
0 0 0
0 0 0
0 -0.00596479 0
0 0 0
0 -0.0082464 0
0 0 0
0 -0.00714461 0
0 0 0
0 0 0
0 -0.00300065 0
0.0169202 -0.00516819 0
0 0 0
0 0.00392502 0
0.0328109 -0.00307519 0
0 0 0
0.0229679 -0.00505984 0
0 0.0128061 0
0 0 0
0.0435542 0.0072724 0
0.0296178 -0.00513205 0
0 0 0
0.0492819 0.0237111 0
0 0 0
0.0367313 -0.00551021 0
0 0 0
0.0695975 -0.00339002 0
0.043916 -0.0061994 0
0.0819891 0.000844937 0
0 0 0
0.0746681 -0.0037433 0
0.090861 0.0065434 0
0.0965802 0.0133552 0
0.0796526 -0.00418601 0
0.10002 0.0205337 0
0 0 0
0.0846127 -0.00489507 0
0.102735 0.028072 0
0.0507144 -0.0071565 0
0.089436 -0.0057085 0
0.105302 0.0369902 0
0 0 0
0.0940303 -0.00669287 0
0.12014 0.00347248 0
0.0983961 -0.00777763 0
0.131593 0.0157019 0
0.0566984 -0.00832638 0
0 0 0
0.130275 -0.00050612 0
0.136525 0.0323445 0
0.102441 -0.00898608 0
0.137515 0.0561466 0
0.106164 -0.0102844 0
0 0 0
0.138844 -0.00466793 0
0.109523 -0.0116736 0
0.0615125 -0.00966393 0
0.146083 -0.00919599 0
0.112491 -0.0131462 0
0 0 0
0.170951 0.00171139 0
0.175891 0.00558418 0
0.115077 -0.0146823 0
0.174511 -0.00135858 0
0.180729 0.0104938 0
0.151959 -0.0140689 0
0.184378 0.0174817 0
0.183323 0.00745499 0
0.188149 0.0274314 0
0.188944 0.0250877 0
0.177653 -0.00450928 0
0.187813 0.0121427 0
0.189067 0.0343002 0
0.189713 0.0231281 0
0.185658 0.0047418 0
0.189834 0.0319317 0
0.182497 -0.000900979 0
0.190469 0.0211544 0
0.189359 0.0421291 0
0.190848 0.0291816 0
0.18971 0.0422662 0
0.270711 0.0714873 0
0.19117 0.0194113 0
0.19011 0.042225 0
0.330263 0.0919125 0
0.268973 0.0704707 0
0.19073 0.0421133 0
0.32848 0.0908893 0
0.333909 0.0914687 0
0.326436 0.089649 0
0.191404 0.041859 0
0.322959 0.0879056 0
0.334028 0.0904365 0
0.265884 0.0684025 0
0.332271 0.0894053 0
0.192221 0.0261978 0
0.191882 0.0176446 0
0.192401 0.0411634 0
0.333875 0.0895367 0
0.319417 0.0860026 0
0.333747 0.0887169 0
0.334418 0.0892987 0
0.193432 0.0404186 0
0.328527 0.0866047 0
0.117226 -0.016306 0
0.314419 0.0831644 0
0.333329 0.087678 0
0.261697 0.0646705 0
0.334198 0.0877761 0
0.332753 0.0865398 0
0.333895 0.0880466 0
0.309607 0.0803224 0
0.0648706 -0.0111413 0
0.194838 0.0389103 0
0.333833 0.0873045 0
0.192534 0.0160208 0
0.187932 0.00222059 0
0 0 0
0.331499 0.0847583 0
0.333751 0.086544 0
0.322245 0.0821123 0
0.190884 0.00802852 0
0.333738 0.0854645 0
0.194019 0.0230162 0
0.303385 0.0761088 0
0.333605 0.0853535 0
0.196216 0.0374652 0
0.333228 0.0863266 0
0.32973 0.0827806 0
0.333446 0.0841104 0
0.256532 0.0588227 0
0.333084 0.0846969 0
0.297428 0.0720688 0
0.33232 0.0816625 0
0.326768 0.079646 0
0.333156 0.0822331 0
0.193229 0.014316 0
0.332334 0.0844145 0
0.197963 0.0351662 0
0.312983 0.0749819 0
0.332251 0.0835585 0
0.332833 0.0821415 0
0.332822 0.0803092 0
0.332167 0.0826826 0
0.323268 0.0764219 0
0.180653 -0.00767813 0
0.28986 0.0664722 0
0.332032 0.081371 0
0.332093 0.0775698 0
0.199566 0.0330176 0
0.33189 0.0800435 0
0.328625 0.0758202 0
0.331055 0.0815881 0
0.332402 0.0783024 0
0.250116 0.0508468 0
0.196234 0.0196092 0
0.193873 0.0126988 0
0.31804 0.0717637 0
0.331675 0.078105 0
0.282744 0.0612723 0
0.330894 0.0797785 0
0.331068 0.0748119 0
0.300144 0.0650707 0
0.331454 0.0761788 0
0.330641 0.0770958 0
0.201482 0.030172 0
0.329751 0.0786548 0
0.312441 0.0672195 0
0.331487 0.0728769 0
0.329659 0.0777291 0
0.329074 0.0710061 0
0.331132 0.0734691 0
0.329566 0.0768089 0
0.19003 -0.000255697 0
0.273863 0.0546119 0
0.321194 0.0675824 0
0.194619 0.0109634 0
0.329429 0.0754631 0
0.330251 0.0732732 0
0.330816 0.0708466 0
0.329292 0.0741342 0
0.326451 0.0672412 0
0.203111 0.0275049 0
0.304607 0.0611614 0
0.24218 0.0412023 0
0.329097 0.0722406 0
0.327987 0.0745876 0
0.193685 0.00416852 0
0.265788 0.0485705 0
0.330249 0.0673336 0
0.328906 0.0703932 0
0.198781 0.0159215 0
0.328995 0.0657042 0
0.327818 0.0727732 0
0.329698 0.0681107 0
0.28346 0.052795 0
0.195343 0.00929686 0
0.322021 0.0622532 0
0.296686 0.0554198 0
0.328636 0.0678447 0
0.327568 0.0701789 0
0.329545 0.0639929 0
0.204968 0.0243951 0
0.308617 0.0568796 0
0.326258 0.0706077 0
0.328372 0.0653973 0
0.326173 0.0697197 0
0.25609 0.041404 0
0.327209 0.066592 0
0.326088 0.068846 0
0.316862 0.057392 0
0.325965 0.067585 0
0.328894 0.0615173 0
0.328035 0.0596872 0
0.328016 0.0621237 0
0.325843 0.0663524 0
0.286122 0.0482695 0
0.196223 0.0074568 0
0.322805 0.0566837 0
0.206442 0.0214486 0
0.192036 -0.0027299 0
0.325672 0.0646132 0
0.326717 0.0618283 0
0.232932 0.03064 0
0.187859 -0.00723678 0
0.327682 0.0590408 0
0.325504 0.0629282 0
0.247814 0.0351055 0
0.324111 0.0654792 0
0.325913 0.0555508 0
0.30901 0.0512021 0
0.183284 -0.0109525 0
0.263392 0.0390015 0
0.323956 0.0638153 0
0.325273 0.0606136 0
0.201509 0.0118043 0
0.2759 0.0416299 0
0.197129 0.00569631 0
0.327182 0.0550446 0
0.323733 0.0614726 0
0.325051 0.0583955 0
0.326995 0.0534646 0
0.289788 0.0439181 0
0.326083 0.0557843 0
0.208063 0.0181799 0
0.321919 0.0503369 0
0.19631 0.000291567 0
0.300468 0.0452138 0
0.32342 0.0582633 0
0.324748 0.055438 0
0.321988 0.0606245 0
0.238632 0.0280792 0
0.156398 -0.0192178 0
0.326617 0.0513227 0
0.321919 0.0598338 0
0.321851 0.0590578 0
0.310328 0.0455737 0
0.321753 0.0579443 0
0.324457 0.0526314 0
0.263245 0.0338091 0
0.321656 0.0568569 0
0.322993 0.0540119 0
0.198223 0.00367928 0
0.316886 0.0452499 0
0.193896 -0.00521138 0
0.321518 0.0553279 0
0.325297 0.0484133 0
0.118977 -0.0179634 0
0.209308 0.0150566 0
0.325338 0.0466447 0
0.288499 0.0378743 0
0.321382 0.0538445 0
0.223701 0.0199453 0
0.324074 0.04898 0
0.231649 0.0221944 0
0.321409 0.0438637 0
0.321191 0.0518045 0
0.242409 0.0248734 0
0.319472 0.0546666 0
0.322431 0.0485691 0
0.252032 0.0269053 0
0.319346 0.0532056 0
0.321003 0.0498396 0
0.323714 0.0455498 0
0.204213 0.00696847 0
0.308659 0.0389455 0
0.32341 0.0422018 0
0.26507 0.0293029 0
0.199344 0.00173224 0
0.319164 0.0511618 0
0.320743 0.0472015 0
0.276294 0.0309424 0
0.210622 0.0114975 0
0.318908 0.04836 0
0.323224 0.0411794 0
0.289107 0.0322279 0
0.32049 0.0446795 0
0.323634 0.0396549 0
0.185681 -0.0142127 0
0.224844 0.0158433 0
0.321721 0.0418342 0
0.198763 -0.00378331 0
0.31696 0.0490891 0
0.195607 -0.0077713 0
0.319477 0.0367473 0
0.299066 0.0327527 0
0.316909 0.0483997 0
0.240004 0.0192077 0
0.318554 0.0446189 0
0.316857 0.047722 0
0.320147 0.0413812 0
0.316784 0.0467559 0
0.200682 -0.000549623 0
0.322692 0.0371233 0
0.316711 0.0458094 0
0.308253 0.0323713 0
0.261294 0.0228605 0
0.316605 0.0444809 0
0.319815 0.0382531 0
0.3165 0.0431853 0
0.211649 0.00809323 0
0.318075 0.0397742 0
0.216997 0.00979473 0
0.31418 0.0314644 0
0.220625 0.0107454 0
0.31635 0.0414006 0
0.225775 0.0119288 0
0.285295 0.0253781 0
0.320883 0.0337883 0
0.321456 0.0321298 0
0.3162 0.0396714 0
0.23122 0.0130539 0
0.319386 0.0342716 0
0.313964 0.0423912 0
0.202002 -0.0027807 0
0.23978 0.0146593 0
0.318066 0.0295531 0
0.313868 0.0411039 0
0.20672 0.00111154 0
0.315988 0.0373422 0
0.197185 -0.0103264 0
0.24829 0.0159849 0
0.19213 -0.0137025 0
0.317446 0.0337116 0
0.313731 0.0393167 0
0.315777 0.0351044 0
0.318987 0.0305431 0
0.260174 0.0175049 0
0.305042 0.025176 0
0.319506 0.0274704 0
0.313537 0.0368707 0
0.212669 0.00407008 0
0.270957 0.0184676 0
0.201074 -0.00813994 0
0.315488 0.0321667 0
0.217348 0.00527071 0
0.187698 -0.0175327 0
0.313267 0.0335988 0
0.283678 0.0190351 0
0.223871 0.0064787 0
0.311046 0.0361177 0
0.203532 -0.005431 0
0.318479 0.025926 0
0.319227 0.0245409 0
0.315204 0.0293755 0
0.311006 0.0355041 0
0.310966 0.0349007 0
0.316662 0.0264249 0
0.310909 0.0340523 0
0.235616 0.00828657 0
0.293809 0.018983 0
0.315323 0.0219696 0
0.310852 0.0332204 0
0.3129 0.029351 0
0.198618 -0.012963 0
0 0 0
0.31077 0.0320627 0
0.314831 0.0258223 0
0.310689 0.0309329 0
0.317935 0.0217047 0
0.213496 0.000211312 0
0.120267 -0.0197273 0
0.303319 0.018053 0
0.254426 0.0104776 0
0.214752 0.000486211 0
0.310573 0.0293848 0
0.215954 0.000710748 0
0.21772 0.0010002 0
0.310458 0.0278845 0
0.314476 0.0224945 0
0.219768 0.00133189 0
0.204974 -0.00804851 0
0.312417 0.0240359 0
0.30943 0.0167384 0
0.223285 0.00188155 0
0.3103 0.0258714 0
0.278063 0.0118721 0
0.227376 0.0024832 0
0.307557 0.0287125 0
0.20901 -0.00591204 0
0.315818 0.0180934 0
0.316667 0.0167042 0
0.310145 0.0239395 0
0.307491 0.0275644 0
0.234039 0.00335656 0
0.314053 0.0184093 0
0.203284 -0.0128217 0
0.307397 0.0260044 0
0.313349 0.0144847 0
0.199904 -0.0155963 0
0.241295 0.00413159 0
0.309939 0.0214135 0
0.189443 -0.0208441 0
0.307266 0.0239009 0
0.214205 -0.0043853 0
0.311822 0.0176725 0
0.251937 0.004989 0
0.309742 0.0190202 0
0.21546 -0.00428946 0
0.298984 0.0108184 0
0.313701 0.0146488 0
0.159346 -0.024586 0
0.206575 -0.011172 0
0.314668 0.012151 0
0.307088 0.021118 0
0.217575 -0.00416737 0
0.26227 0.00542027 0
0.309492 0.0159808 0
0.221789 -0.00386468 0
0.304125 0.0218403 0
0.195348 -0.020239 0
0.304099 0.0212984 0
0.275084 0.0054138 0
0.306851 0.0175362 0
0.304072 0.0207667 0
0.304037 0.0200365 0
0.201044 -0.0183208 0
0.313239 0.0101314 0
0.304003 0.0193221 0
0.314171 0.00901021 0
0.309264 0.0131392 0
0.230332 -0.00325493 0
0.303955 0.0183445 0
0.285796 0.00485327 0
0.311137 0.0103878 0
0.303908 0.0173927 0
0.310135 0.00686233 0
0.214811 -0.00879861 0
0.215168 -0.00883542 0
0.303844 0.0161042 0
0.30655 0.0130783 0
0.208009 -0.0142721 0
0.215531 -0.00887337 0
0.216113 -0.00892002 0
0.303782 0.0148581 0
0.308983 0.00961847 0
0.245977 -0.00243025 0
0.216741 -0.00896114 0
0.296284 0.00339943 0
0.312683 0.00595682 0
0.217826 -0.00898613 0
0.205367 -0.0179093 0
0.3037 0.0131981 0
0.190821 -0.0241734 0
0.219079 -0.00898836 0
0.303622 0.0116052 0
0.221293 -0.0089295 0
0.211294 -0.0140344 0
0.0665292 -0.0127368 0
0.308711 0.00630585 0
0.202031 -0.0210329 0
0.303216 0.00164207 0
0.300305 0.0140959 0
0.306182 0.00770737 0
0.224024 -0.00880963 0
0.303519 0.0095243 0
0.268578 -0.00222285 0
0.300269 0.0130903 0
0.121143 -0.0214862 0
0.228743 -0.00858744 0
0.300218 0.0117664 0
0.310346 0.00208413 0
0.303423 0.00753797 0
0.311349 0.000908197 0
0.300149 0.0100194 0
0.209479 -0.0179666 0
0.234389 -0.00836063 0
0.215359 -0.0139302 0
0.30838 0.00222021 0
0.307704 -0.00108681 0
0.215872 -0.014075 0
0.303299 0.00498957 0
0.300057 0.00773361 0
0.216678 -0.0142876 0
0.243185 -0.00818571 0
0.305726 0.00129073 0
0.291071 -0.00426204 0
0.218033 -0.0145853 0
0.2029 -0.0238395 0
0.303172 0.00253943 0
0.252525 -0.00832049 0
0.307998 -0.00170125 0
0.299936 0.0047884 0
0.309162 -0.00386028 0
0.191922 -0.0275168 0
0.296364 0.00696623 0
0.220635 -0.0149597 0
0.296357 0.00649397 0
0.296351 0.00602995 0
0.296343 0.00541246 0
0.303004 -0.000576439 0
0.197526 -0.0268141 0
0.207185 -0.0235407 0
0.264819 -0.00900385 0
0.296336 0.00480666 0
0.210704 -0.0216352 0
0.299779 0.00105021 0
0.296325 0.00399434 0
0.226237 -0.0153808 0
0.296315 0.00319898 0
0.215869 -0.0188752 0
0.216063 -0.0189654 0
0.21627 -0.0190528 0
0.307394 -0.00652207 0
0.30845 -0.00751651 0
0.2963 0.00213428 0
0.302809 -0.00360678 0
0.275838 -0.01024 0
0.216563 -0.0191878 0
0.216863 -0.0193227 0
0.296285 0.00109315 0
0.203606 -0.026634 0
0.303814 -0.00939262 0
0.305049 -0.00645612 0
0.217315 -0.0195161 0
0.296264 -0.000291275 0
0.21777 -0.0197131 0
0.299566 -0.00367127 0
0.237894 -0.015971 0
0.218486 -0.0199803 0
0.29624 -0.00164663 0
0.287253 -0.0124807 0
0.213636 -0.0232165 0
0.302523 -0.00743108 0
0.219249 -0.0202488 0
0 0 0
0.306674 -0.0111279 0
0.296205 -0.00343557 0
0.220571 -0.0205837 0
0.192686 -0.0308593 0
0.292009 -0.000923453 0
0.160784 -0.030132 0
0.296162 -0.00519346 0
0.211795 -0.0259604 0
0.222174 -0.0208963 0
0.292001 -0.00184514 0
0.295182 -0.0149687 0
0.121539 -0.0233835 0
0.302192 -0.0111464 0
0.291988 -0.0030254 0
0.204193 -0.0295521 0
0.257618 -0.0173522 0
0.299228 -0.00960765 0
0.225087 -0.021273 0
0.296086 -0.00749122 0
0.216684 -0.0244373 0
0.291969 -0.00456018 0
0.216925 -0.0246541 0
0.217349 -0.0249571 0
0.228842 -0.0216276 0
0.304982 -0.0166868 0
0.295995 -0.00975076 0
0.303932 -0.0156797 0
0.291942 -0.00657065 0
0.208543 -0.029844 0
0.218009 -0.0253945 0
0.300532 -0.0184894 0
0.301703 -0.0157272 0
0.235129 -0.0221977 0
0.291897 -0.00920654 0
0.295855 -0.0126668 0
0.219003 -0.0260328 0
0.280673 -0.0208671 0
0.204605 -0.0324613 0
0.198747 -0.0333864 0
0.212554 -0.0302467 0
0.298654 -0.0169281 0
0.242586 -0.0229763 0
0.193184 -0.034209 0
0.287554 -0.00844913 0
0.2206 -0.0269594 0
0.295692 -0.0155219 0
0.287558 -0.00891434 0
0.291814 -0.0126446 0
0.302298 -0.0219192 0
0.287561 -0.00937464 0
0.30114 -0.0201499 0
0.287565 -0.00996351 0
0.287568 -0.0105466 0
0.28757 -0.0113075 0
0.217251 -0.0298561 0
0.253154 -0.0244589 0
0.217387 -0.0299646 0
0.217521 -0.0300737 0
0.28757 -0.0120612 0
0.217708 -0.0302367 0
0.223795 -0.0282724 0
0.295445 -0.0191305 0
0.217894 -0.0304008 0
0.287567 -0.0130547 0
0.218158 -0.0306414 0
0.291663 -0.0170761 0
0.287562 -0.0140388 0
0.218421 -0.0308845 0
0.218789 -0.0312352 0
0.204871 -0.0355278 0
0.263636 -0.0265119 0
0.287549 -0.015339 0
0.301427 -0.0262738 0
0.300293 -0.0254884 0
0.219157 -0.0315903 0
0.295158 -0.0226443 0
0.287531 -0.0166258 0
0.295475 -0.0275806 0
0.215231 -0.0336571 0
0.219666 -0.0320935 0
0.297668 -0.0256955 0
0.231061 -0.0301978 0
0.287502 -0.0183187 0
0.213075 -0.0352023 0
0.220169 -0.0326064 0
0.19338 -0.0375513 0
0.291385 -0.0226717 0
0.121503 -0.0252184 0
0.287464 -0.0199898 0
0.275371 -0.0297476 0
0.209214 -0.0369179 0
0.220943 -0.0332982 0
0.294735 -0.0269827 0
0.282327 -0.017137 0
0.299299 -0.0305838 0
0.287403 -0.0221657 0
0.282333 -0.0181163 0
0.221783 -0.0339949 0
0.204956 -0.0385839 0
0.282336 -0.0193292 0
0.217716 -0.0360122 0
0.217926 -0.0362336 0
0.287329 -0.0243056 0
0.284239 -0.0332406 0
0.245762 -0.0333379 0
0.282334 -0.0208676 0
0.21824 -0.0365631 0
0.223338 -0.0348779 0
0.294247 -0.0311875 0
0.218693 -0.0370475 0
0.199054 -0.039967 0
0.290891 -0.0295684 0
0.282324 -0.0228464 0
0.287212 -0.0270495 0
0.225276 -0.0357721 0
0.219329 -0.0377516 0
0.160713 -0.0358281 0
0.29702 -0.0365537 0
0.213179 -0.0401084 0
0.282295 -0.0254031 0
0.29607 -0.0358985 0
0.193326 -0.0409001 0
0.287072 -0.0297383 0
0.290856 -0.0378223 0
0.220189 -0.0387661 0
0.228888 -0.0369885 0
0.204861 -0.0418263 0
0.293545 -0.0362501 0
0.282231 -0.0286938 0
0 0 0
0.286858 -0.0331237 0
0.267134 -0.038691 0
0.276995 -0.025692 0
0.221362 -0.0402084 0
0.23361 -0.0383665 0
0.276999 -0.0262152 0
0.277002 -0.0267347 0
0.0662776 -0.0144046 0
0.217608 -0.042114 0
0.277005 -0.027369 0
0.290042 -0.0378477 0
0.217714 -0.0422314 0
0.217821 -0.0423492 0
0.277007 -0.0279986 0
0.293363 -0.0420704 0
0.217971 -0.0425237 0
0.282099 -0.0328843 0
0.286607 -0.0364274 0
0.277008 -0.0287872 0
0.21812 -0.0426991 0
0.292742 -0.0411208 0
0.21833 -0.0429554 0
0.277008 -0.0295694 0
0.218538 -0.0432135 0
0.241103 -0.0405678 0
0.277004 -0.0305667 0
0.22318 -0.0422575 0
0.218828 -0.0435853 0
0.208953 -0.0448196 0
0.120966 -0.0272293 0
0.276998 -0.0315549 0
0.204578 -0.0450535 0
0.219113 -0.043961 0
0.193 -0.04424 0
0.276987 -0.0328267 0
0.219502 -0.0444946 0
0.286236 -0.0405035 0
0.212865 -0.0456908 0
0.215141 -0.0454779 0
0.27697 -0.034085 0
0.219881 -0.0450355 0
0.281853 -0.0381392 0
0.249713 -0.0433765 0
0.276943 -0.0357071 0
0.29264 -0.0472405 0
0.220389 -0.0457903 0
0.291577 -0.0468629 0
0.198474 -0.0465695 0
0.226668 -0.0453099 0
0.284096 -0.0473087 0
0.276907 -0.0373089 0
0.220875 -0.0465584 0
0.285806 -0.0444625 0
0.288625 -0.0475006 0
0.27685 -0.0393632 0
0.221513 -0.047605 0
0.260259 -0.047658 0
0.204077 -0.0484908 0
0.270635 -0.0356073 0
0.281411 -0.0445998 0
0.216943 -0.0489582 0
0.27678 -0.0413874 0
0.27064 -0.0367342 0
0.21711 -0.0491925 0
0.222125 -0.0486705 0
0.217356 -0.0495409 0
0.192436 -0.0475796 0
0.270642 -0.0380658 0
0.285188 -0.0492346 0
0.290234 -0.0523262 0
0.217711 -0.0500517 0
0.276671 -0.0439568 0
0.270638 -0.0396825 0
0.222931 -0.0500986 0
0.234864 -0.0501196 0
0.218204 -0.0507903 0
0.21207 -0.0511971 0
0.269422 -0.0524371 0
0.270624 -0.0416854 0
0.276542 -0.0464812 0
0.218871 -0.0518441 0
0.223717 -0.051567 0
0.28448 -0.0538538 0
0.270588 -0.0441967 0
0.203382 -0.0519055 0
0.280652 -0.0523594 0
0.276346 -0.0496394 0
0.219748 -0.0533289 0
0.119992 -0.0290913 0
0.159149 -0.041628 0
0.286871 -0.0584374 0
0.225107 -0.05353 0
0.20747 -0.0535675 0
0.270517 -0.0473577 0
0.286393 -0.0584504 0
0.277313 -0.0585107 0
0.191626 -0.0509009 0
0.276116 -0.0527314 0
0.220866 -0.0554007 0
0.283484 -0.0592885 0
0.215703 -0.0556425 0
0.264037 -0.0454179 0
0.215783 -0.0557628 0
0.215863 -0.0558834 0
0.227022 -0.0555647 0
0.197049 -0.0531834 0
0.26404 -0.0460279 0
0.25084 -0.0575769 0
0.215979 -0.0560615 0
0.270383 -0.0513228 0
0.216093 -0.0562403 0
0.264043 -0.0466346 0
0.216257 -0.0565005 0
0.264045 -0.0473403 0
0.216418 -0.0567621 0
0.275778 -0.0565319 0
0.264045 -0.048042 0
0.216646 -0.0571371 0
0.264044 -0.048881 0
0.21687 -0.0575149 0
0.202411 -0.055547 0
0.264041 -0.0497147 0
0.210684 -0.0573165 0
0.281086 -0.0639925 0
0.217177 -0.0580493 0
0.279402 -0.0614488 0
0.264035 -0.0507343 0
0.2222 -0.0582906 0
0.217479 -0.0585892 0
0.23095 -0.0583173 0
0.27014 -0.0562472 0
0.264025 -0.0517467 0
0.275387 -0.0602381 0
0.282351 -0.0645203 0
0.212724 -0.0585009 0
0 0 0
0.21788 -0.0593433 0
0.264009 -0.053005 0
0.190589 -0.0542105 0
0.218271 -0.0601085 0
0.263989 -0.0542529 0
0.263955 -0.0558174 0
0.218775 -0.0611651 0
0.236184 -0.0615799 0
0.27483 -0.0647058 0
0.263915 -0.0573667 0
0.269718 -0.0622714 0
0.219251 -0.0622459 0
0.22377 -0.0623256 0
0.281319 -0.0703022 0
0.201245 -0.0591555 0
0.263852 -0.0593121 0
0.280795 -0.0705795 0
0.268503 -0.0682879 0
0.118488 -0.0311507 0
0.219834 -0.0637211 0
0.2137 -0.062979 0
0.263777 -0.0612348 0
0.213839 -0.0632213 0
0.274195 -0.0690438 0
0.214043 -0.063581 0
0.256212 -0.0566124 0
0.243712 -0.0664108 0
0.277429 -0.07182 0
0.214332 -0.0641073 0
0.220341 -0.0652417 0
0.263664 -0.0636379 0
0.256216 -0.0579471 0
0.208788 -0.0633141 0
0.189334 -0.057487 0
0.214732 -0.0648666 0
0.256215 -0.0594553 0
0.194813 -0.059786 0
0.269011 -0.0695013 0
0.204476 -0.0630997 0
0.263532 -0.0660071 0
0.215266 -0.0659482 0
0.220939 -0.0672604 0
0.256205 -0.0612057 0
0.278993 -0.0762449 0
0.226887 -0.0682859 0
0.273319 -0.0741563 0
0.256181 -0.0632854 0
0.215947 -0.0674704 0
0.199745 -0.0629927 0
0.251677 -0.0721698 0
0.263339 -0.0689396 0
0.221409 -0.0693294 0
0.156124 -0.0474279 0
0.256133 -0.0658005 0
0.263114 -0.0718218 0
0.216763 -0.0695891 0
0.0639974 -0.0160395 0
0.272337 -0.0791011 0
0.256047 -0.068875 0
0.187864 -0.0607363 0
0.221897 -0.0720048 0
0.26787 -0.0779823 0
0.262793 -0.07534 0
0.273771 -0.0819358 0
0.211083 -0.0700876 0
0.211147 -0.0702107 0
0.21121 -0.0703341 0
0.211303 -0.0705163 0
0.259354 -0.0797171 0
0.211395 -0.070699 0
0.217664 -0.0724999 0
0.274422 -0.0832294 0
0.211527 -0.0709649 0
0.255896 -0.0726464 0
0.211657 -0.0712319 0
0.211841 -0.0716141 0
0.206162 -0.0698092 0
0.198053 -0.0667759 0
0.248046 -0.0677882 0
0.222342 -0.0747213 0
0.21202 -0.0719989 0
0.116573 -0.0329518 0
0.262425 -0.0787852 0
0.248049 -0.0685191 0
0.23495 -0.0774639 0
0.212265 -0.0725411 0
0.24805 -0.0692475 0
0.27098 -0.0847668 0
0.212503 -0.073088 0
0.24805 -0.0700575 0
0.248047 -0.0708644 0
0.212819 -0.0738469 0
0.25564 -0.0772574 0
0.248042 -0.0717849 0
0.2076 -0.0723628 0
0.21312 -0.0746143 0
0.248034 -0.0727015 0
0.218582 -0.0764363 0
0.261909 -0.0829187 0
0.191789 -0.0663423 0
0.248021 -0.0737723 0
0.186206 -0.0639339 0
0.264192 -0.0869202 0
0.223294 -0.0783055 0
0.213506 -0.0756627 0
0.248005 -0.0748379 0
0.26609 -0.0876746 0
0.213867 -0.0767246 0
0.24798 -0.0761081 0
0.269457 -0.0902578 0
0 0 0
0.24795 -0.0773709 0
0.255218 -0.0828415 0
0.261325 -0.086949 0
0.214301 -0.0781555 0
0.247907 -0.0788984 0
0.195975 -0.0707701 0
0.224909 -0.082114 0
0.247855 -0.080415 0
0.2147 -0.0796062 0
0.199746 -0.0732363 0
0.219405 -0.0816774 0
0.247781 -0.0822645 0
0.207582 -0.07765 0
0.207701 -0.0778961 0
0.207873 -0.0782607 0
0.203031 -0.0761016 0
0.260528 -0.0916908 0
0.215147 -0.0815332 0
0.266122 -0.0949804 0
0.208116 -0.078793 0
0.247694 -0.0840981 0