# vtk DataFile Version 3.0
File generated from DClib
ASCII

DATASET UNSTRUCTURED_GRID
POINTS 1909 float
50 0 0 
48.75 0 0 
50 1.66667 0 
47.5 0 0 
50 3.33333 0 
46.25 0 0 
50 5 0 
45 0 0 
43.75 0 0 
50 6.66667 0 
43 2 0 
42.5 0 0 
50 8.33333 0 
43 4.66667 0 
41.25 0 0 
41.075 2 0 
50 10 0 
40 0 0 
43 7.33333 0 
39.15 2 0 
38.75 0 0 
43 10 0 
37.5 0 0 
37.225 2 0 
36.25 0 0 
36 4 0 
35.3 2 0 
36 5 0 
35 0 0 
35.325 4 0 
36 6 0 
36 7 0 
34.65 4 0 
36 8 0 
33.75 0 0 
33.975 4 0 
36 9 0 
33.375 2 0 
33.3 4 0 
36 10 0 
32.5 0 0 
32.625 4 0 
33 6 0 
31.95 4 0 
33 7.45455 0 
31.45 2 0 
31.25 0 0 
31.95 6 0 
33 8.79545 0 
31.275 4 0 
33 10 0 
30.6 4 0 
30 0 0 
30.9 6 0 
29.925 4 0 
29.525 2 0 
29.85 6 0 
29.25 4 0 
28.75 0 0 
30 8 0 
30 8.45455 0 
28.575 4 0 
29.625 8 0 
30 8.90909 0 
28.8 6 0 
30 9.25 0 
29.782 8.90909 0 
30 9.59091 0 
29.9487 9.59091 0 
29.25 8 0 
29.7462 9.25 0 
30 9.79545 0 
29.897 9.59091 0 
29.564 8.90909 0 
29.9547 9.79545 0 
29.3462 8.45455 0 
29.84 9.59091 0 
30 10 0 
29.8975 9.79545 0 
29.9882 10 0 
29.9902 10.0098 0 
29.7827 9.59091 0 
29.9765 10 0 
29.9804 10.0196 0 
29.9667 10.0098 0 
29.9591 10 0 
29.9686 10.0196 0 
29.9659 10.0341 0 
29.9569 10.0196 0 
29.9418 10 0 
29.9395 10.0196 0 
29.9515 10.0485 0 
29.932 10.0098 0 
29.9424 10.0341 0 
29.8241 9.79545 0 
29.7181 9.59091 0 
29.9166 10 0 
29.9397 10.0485 0 
29.9222 10.0196 0 
29.9279 10.0485 0 
29.9305 10.0695 0 
29.8914 10 0 
29.9077 10.0341 0 
27.9 4 0 
29.897 10.0196 0 
29.9106 10.0485 0 
29.8817 10.0098 0 
29.907 10.0695 0 
29.8933 10.0485 0 
29.9095 10.0905 0 
29.8719 10.0196 0 
27.6 2 0 
29.8556 10 0 
29.8978 10.0905 0 
29.6531 9.59091 0 
29.3437 8.90909 0 
27.5 0 0 
29.8681 10.0485 0 
29.886 10.0905 0 
29.8574 10.0341 0 
29.4839 9.25 0 
29.8723 10.0695 0 
29.7289 9.79545 0 
29.836 10.0196 0 
29.8687 10.0905 0 
29.8197 10 0 
29.8797 10.1203 0 
29.843 10.0485 0 
29.8513 10.0905 0 
29.81 10.0098 0 
29.8561 10.1203 0 
29.8002 10.0196 0 
29.8221 10.0695 0 
29.8072 10.0485 0 
29.8262 10.0905 0 
29.5782 9.59091 0 
29.8498 10.1502 0 
29.7695 10 0 
29.7858 10.0341 0 
29.838 10.1502 0 
29.8215 10.1203 0 
29.8011 10.0905 0 
29.8262 10.1502 0 
29.7714 10.0485 0 
28.875 8 0 
29.75 10.0196 0 
29.8089 10.1502 0 
29.7654 10.0905 0 
29.7193 10 0 
29.7916 10.1502 0 
29.7505 10.0695 0 
29.8079 10.1921 0 
29.7713 10.1203 0 
29.7096 10.0098 0 
29.6047 9.79545 0 
29.503 9.59091 0 
29.7213 10.0485 0 
29.7665 10.1502 0 
29.6999 10.0196 0 
29.7844 10.1921 0 
29.7296 10.0905 0 
29.6856 10.0341 0 
29.7414 10.1502 0 
29.7497 10.1921 0 
29.6503 10 0 
29.7661 10.2339 0 
29.6712 10.0485 0 
29.6999 10.1203 0 
29.7543 10.2339 0 
29.6796 10.0905 0 
29.7057 10.1502 0 
29.7425 10.2339 0 
29.1235 8.90909 0 
29.6309 10.0196 0 
29.6504 10.0695 0 
29.4146 9.59091 0 
29.7252 10.2339 0 
29.6996 10.1921 0 
29.6701 10.1502 0 
29.7079 10.2339 0 
29.6296 10.0905 0 
29.5813 10 0 
29.6023 10.0485 0 
29.5716 10.0098 0 
29.6828 10.2339 0 
29.7086 10.2914 0 
29.2101 9.25 0 
29.562 10.0196 0 
29.6201 10.1502 0 
29.6578 10.2339 0 
29.4428 9.79545 0 
29.5999 10.1203 0 
29.6849 10.2914 0 
29.6283 10.1921 0 
29.5477 10.0341 0 
29.3259 9.59091 0 
29.5608 10.0905 0 
29.5335 10.0485 0 
29.6221 10.2339 0 
29.6503 10.2914 0 
29.5702 10.1502 0 
29.4881 10 0 
29.5128 10.0695 0 
29.6511 10.3489 0 
29.5866 10.2339 0 
29.6392 10.3489 0 
29.4689 10.0196 0 
29.6002 10.2914 0 
29.6273 10.3489 0 
29.4921 10.0905 0 
29.61 10.3489 0 
29.5286 10.1921 0 
29.5016 10.1502 0 
29.5368 10.2339 0 
29.5926 10.3489 0 
29.4405 10.0485 0 
29.2199 9.59091 0 
29.4626 10.1203 0 
29.3949 10 0 
28.9 8.90909 0 
29.5676 10.3489 0 
29.5291 10.2914 0 
29.3853 10.0098 0 
28.6923 8.45455 0 
29.487 10.2339 0 
29.5426 10.3489 0 
29.3758 10.0196 0 
29.5734 10.4266 0 
29.4331 10.1502 0 
29.3993 10.0905 0 
28.5 8 0 
29.3617 10.0341 0 
29.5496 10.4266 0 
29.5071 10.3489 0 
29.2327 9.79545 0 
29.3475 10.0485 0 
29.1136 9.59091 0 
29.4187 10.2339 0 
29.5148 10.4266 0 
29.4716 10.3489 0 
29.3918 10.1921 0 
29.3271 10.0695 0 
29.4298 10.2914 0 
29.2714 10 0 
29.3406 10.1502 0 
28.9208 9.25 0 
29.3066 10.0905 0 
29.4648 10.4266 0 
29.422 10.3489 0 
29.4958 10.5042 0 
29.2524 10.0196 0 
27.75 6 0 
29.3504 10.2339 0 
29.4837 10.5042 0 
29.4718 10.5042 0 
29.2774 10.1203 0 
29.4543 10.5042 0 
29.3724 10.3489 0 
29.2244 10.0485 0 
29.4369 10.5042 0 
29.3938 10.4266 0 
28.9853 9.59091 0 
29.2481 10.1502 0 
28.6766 8.90909 0 
29.4119 10.5042 0 
29.2934 10.2914 0 
27.225 4 0 
29.148 10 0 
29.2582 10.2339 0 
29.1837 10.0905 0 
29.3869 10.5042 0 
29.1385 10.0098 0 
29.3044 10.3489 0 
29.1291 10.0196 0 
29.2072 10.1921 0 
29.3514 10.5042 0 
29.1152 10.0341 0 
29.3929 10.6071 0 
29.2949 10.4266 0 
29.1013 10.0485 0 
29.3686 10.6071 0 
29.316 10.5042 0 
29.2364 10.3489 0 
28.9623 9.79545 0 
29.1257 10.1502 0 
29.1662 10.2339 0 
29.0811 10.0695 0 
28.8566 9.59091 0 
29.3336 10.6071 0 
29.2666 10.5042 0 
29.0609 10.0905 0 
28.9875 10 0 
29.2835 10.6071 0 
29.1448 10.3489 0 
29.0321 10.1203 0 
29.2173 10.5042 0 
29.1098 10.2914 0 
28.125 8 0 
28.9688 10.0196 0 
29.1594 10.4266 0 
28.611 9.25 0 
29.29 10.71 0 
28.4486 8.90909 0 
29.0443 10.2339 0 
29.0033 10.1502 0 
29.2777 10.71 0 
28.9413 10.0485 0 
29.2128 10.6071 0 
29.2655 10.71 0 
29.1497 10.5042 0 
29.2478 10.71 0 
28.7003 9.59091 0 
29.0533 10.3489 0 
29.2303 10.71 0 
28.9629 10.1921 0 
28.9013 10.0905 0 
29.2051 10.71 0 
29.0822 10.5042 0 
29.1801 10.71 0 
28.827 10 0 
29.1144 10.6071 0 
28.8177 10.0098 0 
28.9225 10.2339 0 
28.8085 10.0196 0 
29.1447 10.71 0 
28.7949 10.0341 0 
28.8443 10.1502 0 
28.977 10.4266 0 
28.9322 10.3489 0 
29.1094 10.71 0 
28.7813 10.0485 0 
28.9912 10.5042 0 
29.1562 10.8438 0 
28.5436 9.59091 0 
28.7615 10.0695 0 
28.8669 10.2914 0 
29.1313 10.8438 0 
28.6184 9.79545 0 
29.0602 10.71 0 
28.2207 8.90909 0 
28.7418 10.0905 0 
28.0378 8.45455 0 
28.9798 10.6071 0 
29.0958 10.8438 0 
29.0112 10.71 0 
28.9005 10.5042 0 
28.7136 10.1203 0 
28.7644 10.2339 0 
28.8113 10.3489 0 
29.0454 10.8438 0 
28.6223 10 0 
28.6854 10.1502 0 
28.2746 9.25 0 
28.9441 10.71 0 
28.6042 10.0196 0 
27.75 8 0 
28.9747 10.8438 0 
28.6459 10.1921 0 
28.5773 10.0485 0 
29.0225 10.9775 0 
28.3532 9.59091 0 
28.7804 10.5042 0 
28.736 10.4266 0 
28.8772 10.71 0 
29.0097 10.9775 0 
28.9971 10.9775 0 
28.799 10.6071 0 
28.9791 10.9775 0 
28.5384 10.0905 0 
28.6064 10.2339 0 
28.6543 10.3489 0 
28.9611 10.9775 0 
28.8769 10.8438 0 
27.9867 8.90909 0 
26.25 0 0 
28.9358 10.9775 0 
28.7871 10.71 0 
28.9106 10.9775 0 
28.6607 10.5042 0 
28.4177 10 0 
26.55 4 0 
28.552 10.2914 0 
28.483 10.1502 0 
28.4087 10.0098 0 
28.8751 10.9775 0 
28.3998 10.0196 0 
28.3866 10.0341 0 
28.8399 10.9775 0 
28.6974 10.71 0 
28.3735 10.0485 0 
28.1625 9.59091 0 
28.7436 10.8438 0 
28.4976 10.3489 0 
28.3543 10.0695 0 
28.791 10.9775 0 
28.4052 10.2339 0 
28.3352 10.0905 0 
28.8519 11.1481 0 
28.1869 9.79545 0 
28.5607 10.6071 0 
28.5053 10.5042 0 
28.7423 10.9775 0 
28.8258 11.1481 0 
28.308 10.1203 0 
28.5787 10.71 0 
27.904 9.25 0 
28.7893 11.1481 0 
28.424 10.4266 0 
27.7528 8.90909 0 
28.2807 10.1502 0 
28.6758 10.9775 0 
27.375 8 0 
28.7383 11.1481 0 
28.1619 10 0 
28.5649 10.8438 0 
28.2425 10.1921 0 
28.6096 10.9775 0 
28.1444 10.0196 0 
28.298 10.3489 0 
28.4605 10.71 0 
26.7 6 0 
27.9315 9.59091 0 
28.3503 10.5042 0 
28.6676 11.1481 0 
28.1187 10.0485 0 
28.2042 10.2339 0 
28.5207 10.9775 0 
28.0813 10.0905 0 
28.6814 11.3186 0 
27.3818 8.45455 0 
28.6679 11.3186 0 
28.1516 10.2914 0 
28.5703 11.1481 0 
28.6544 11.3186 0 
28.6358 11.3186 0 
27.5109 8.90909 0 
28.3072 10.71 0 
28.6173 11.3186 0 
28.2524 10.6071 0 
28.4322 10.9775 0 
28.028 10.1502 0 
28.5915 11.3186 0 
28.0989 10.3489 0 
28.33 10.8438 0 
28.5658 11.3186 0 
28.153 10.5042 0 
27.9061 10 0 
27.8975 10.0098 0 
28.5303 11.3186 0 
28.4384 11.1481 0 
27.7002 9.59091 0 
27.889 10.0196 0 
27.8765 10.0341 0 
28.4949 11.3186 0 
28.3154 10.9775 0 
27.9532 10.2339 0 
27.8639 10.0485 0 
28.0276 10.4266 0 
28.1544 10.71 0 
27.8457 10.0695 0 
27.4909 9.25 0 
28.4463 11.3186 0 
27 8 0 
27.8275 10.0905 0 
28.3979 11.3186 0 
27.8015 10.1203 0 
27.6542 9.79545 0 
25.675 2 0 
28.1991 10.9775 0 
27.2691 8.90909 0 
27.9563 10.5042 0 
28.4682 11.5318 0 
28.2625 11.1481 0 
27.7755 10.1502 0 
28.3322 11.3186 0 
27.8502 10.3489 0 
28.4401 11.5318 0 
25.875 4 0 
27.7391 10.1921 0 
28.4019 11.5318 0 
28.0268 10.8438 0 
28.2668 11.3186 0 
27.9602 10.71 0 
28.3498 11.5318 0 
27.4223 9.59091 0 
27.7026 10.2339 0 
27.5927 10 0 
28.0486 10.9775 0 
27.8616 10.6071 0 
27.5762 10.0196 0 
28.1794 11.3186 0 
28.2786 11.5318 0 
27.5519 10.0485 0 
27.6524 10.2914 0 
28.0319 11.1481 0 
27.7108 10.5042 0 
27.5167 10.0905 0 
27.0169 8.90909 0 
28.0924 11.3186 0 
27.6021 10.3489 0 
27.8988 10.9775 0 
28.1818 11.5318 0 
27.7667 10.71 0 
26.625 8 0 
28.255 11.745 0 
27.4664 10.1502 0 
28.2402 11.745 0 
28.2256 11.745 0 
28.2059 11.745 0 
27.978 11.3186 0 
26.7234 8.45455 0 
27.0259 9.25 0 
27.5342 10.4266 0 
28.1863 11.745 0 
27.1442 9.59091 0 
28.0516 11.5318 0 
28.1598 11.745 0 
27.3959 10.2339 0 
28.1334 11.745 0 
27.2793 10 0 
27.2714 10.0098 0 
27.2635 10.0196 0 
27.7086 10.9775 0 
27.6431 10.8438 0 
28.0975 11.745 0 
27.8643 11.3186 0 
27.4661 10.5042 0 
27.2518 10.0341 0 
27.2401 10.0485 0 
28.0617 11.745 0 
26.7648 8.90909 0 
27.5255 10.71 0 
27.7353 11.1481 0 
27.2231 10.0695 0 
28.0133 11.745 0 
27.2061 10.0905 0 
27.8791 11.5318 0 
27.2986 10.3489 0 
27.1818 10.1203 0 
27.9651 11.745 0 
27.3758 10.6071 0 
27.0077 9.79545 0 
27.7174 11.3186 0 
27.1576 10.1502 0 
25 0 0 
27.5193 10.9775 0 
27.9003 11.745 0 
27.1236 10.1921 0 
26.25 8 0 
27.9939 12.0061 0 
25.65 6 0 
27.8359 11.745 0 
26.8136 9.59091 0 
27.0896 10.2339 0 
27.9626 12.0061 0 
27.2853 10.71 0 
25.2 4 0 
27.5713 11.3186 0 
27.9218 12.0061 0 
26.4998 8.90909 0 
27.167 10.5042 0 
27.6541 11.5318 0 
27.0427 10.2914 0 
27.7503 11.745 0 
26.9033 10 0 
27.8677 12.0061 0 
26.8882 10.0196 0 
26.8659 10.0485 0 
26.9958 10.3489 0 
27.2836 10.9775 0 
27.6652 11.745 0 
27.3609 11.1481 0 
27.7955 12.0061 0 
26.499 9.25 0 
[...]
POINT_DATA 1909
SCALARS phi float 1
LOOKUP_TABLE default
-3.74413e+06
-2.41395e+06
-579933
-1.56152e+06
-582468
-1.37806e+06
-554259
-810115
-644164
-548370
-4.68614e+06
-338672
-3.10259e+06
-516817
-215600
-2.20163e+06
-8.43331e+06
-82991.1
-426437
-1.58353e+06
-15227
-6.70888e+06
15100
-1.1265e+06
29475.3
-5.91221e+06
-795956
-112010
15649.7
-4.19843e+06
-198749
-188298
-3.04195e+06
-189656
-2426.63
-3.4993e+06
-3.1553e+06
-570869
-2.67226e+06
-5.04773e+06
-15629.5
-3.08517e+06
-92049.3
-2.38246e+06
-213033
-432903
-31300
-64438.3
-1.01976e+06
-2.77375e+06
-3.27008e+06
-2.16721e+06
-22093
-60948.9
-2.55491e+06
-368838
-73826
-2.02692e+06
-12694
52.7934
-1599.98
-2.42253e+06
-24983.3
656.877
-94011.5
-76132.6
-63871.1
-781.089
-41449.8
-32783.6
-53356.2
-126476
-31220.5
-60200.1
-28445.1
-139206
-24371.5
-459015
-36174.3
-11754.5
-945783
-22876.3
-12752.4
-160282
-484121
-14963.1
-255501
-604500
-5335.38
-40652.6
34629
-131005
-269974
-248966
-42761.8
-19119.9
-37211.4
-68864.8
65725.4
-24539.7
-108861
-97268
-6919.05
-1.95434e+06
52874.4
-46284.3
-120534
-60604.6
-44271.8
-64016
-4109.65
-375754
-81410.1
-68039.5
-20135.5
-60947.4
-149.298
-49973.2
-61628.7
42976.5
-49612.4
-129988
-48876.6
4510.28
-72001.6
-155368
-98257.7
5255.64
-46309.2
-35012.6
-98701.3
-15458.2
-113727
14804.8
-75618.1
-18011.4
-93709.2
-125175
1572.23
-111349
-91266
-55624.5
-86813.9
29400
-45218.5
-2960.35
-107755
-99921.5
-177647
-84806.8
-13496.5
-156394
-121237
-5583.47
-53175.8
-20585.8
22408.6
-104444
-4024.59
-152043
-55918.7
-11235.8
-74082.6
-148324
-139298
-144962
1632.62
-156837
-177699
-59337
-104595
-140095
-63226.6
-425.492
25290.5
-19057.4
-166627
-133562
-71696.9
-126653
7014.19
-156685
4008.61
-456.343
-148906
-243862
-52961.6
-46.8674
-141681
-110692
-57594.4
-92799.6
-230302
-131853
-1824.18
-24280.6
3352.06
-2738.2
-127477
-208229
-96325
-122937
3453.73
-213651
-89227.1
-255430
36.9399
-179575
-197237
11496
-230760
-171613
-138331
-112611
-173393
149.532
-23648.3
2466.27
-127465
-65959.9
-194627
-143202
13.6346
-149374
-74151.4
-139619
-2.03382
-318573
-44426.4
5046.53
-55394.6
48.3054
-290456
-149556
-66511.4
31.3198
-32908.4
-162655
-251715
-102564
-165935
-4.18568
-118583
-106251
-42449.8
-58945.5
-2.59099
-203293
-108982
-247153
-26.7877
-115323
-125436
-289840
-220879
8338.99
-252258
-75309.2
0.136616
-186526
-154424
-33074.4
6388.09
-72391.9
-206511
-171339
-2.36467e+06
-124432
-228513
441.972
-147902
-39.7741
-94873.7
-17.2475
-51079.9
-158026
-97.342
-322000
-117227
-125.501
-290413
-110447
-68629.6
-84905.6
-2383.7
-127400
-93.6802
-48288
-250976
-114569
13.4593
-112887
-207222
-185326
669.993
-80087.9
-256266
-63569.7
-71.6707
-104457
-66392.8
-222951
-73045.6
-120224
1379.97
-261725
-176.71
-165340
-200853
-86523.3
-232862
-48366.1
-169199
-176842
860.915
-287.351
-201952
-66677.5
-151682
-150440
-132356
-158.045
-17052.7
-135.707
-171700
-245.861
-325.482
-190168
-360452
-128630
-225.39
-90633.9
-298202
-69957.9
-440.574
-138990
-280522
-115189
-144458
-77929.7
-443.69
-154064
-114221
-258524
-108425
-75454.7
-678.354
-18753.1
-251664
-233552
-141551
-559.063
-75719
-118235
-162.593
-70555.6
-207202
-887.431
-280.906
-226720
-68590.6
-238017
-373689
-87534.8
-275633
-219613
-115048
-265917
-531.894
-395.902
-221868
-211177
-180176
-76430.9
-15748.2
-253548
-95116.4
-199785
-233000
-196224
-1.9371e+06
-17697
-1002.47
-220.816
-237263
-211.022
-363.898
-184713
-74771.5
-348.738
-96226.8
-152421
-50536.2
-628.417
-216009
-2426.08
-599.66
-322663
-155981
-231474
-498659
-164657
-315799
-1114.18
-105788
-85836.2
-304838
-226386
-79752.3
-1080.79
-186849
-74697.5
-288893
-188500
-131063
-1871.11
-137714
-200.531
-36055.9
-91568.6
-134777
-92201.4
-364705
-266836
-357.539
-1854.07
-144927
-648.944
-262878
-150041
-322169
-4135.98
-237852
-258319
-314761
-76756.6
-352305
-250778
-519566
-102010
-1183.98
-302066
-4459.52
-136735
-237658
-285663
-271006
-181.257
-281724
-203068
-125590
-177.49
-323.38
-217843
-107948
-2277.87
-319.744
-33957.2
-381549
-603.939
-97837.3
-253906
-79226.9
-596.637
-192888
-1153.68
-208697
-469565
-88119.3
-79741.5
-67825.6
-342103
-166818
-1146.75
-222818
-5596.15
-336000
-2.36143e+06
-2276.48
-324892
-377447
-167642
-712039
-308300
-119366
-2301.18
-258528
-153554
-290376
-149.414
-193562
-286688
-301.25
-4071.56
-146520
-42328.2
-600.323
-75598.9
-146293
-4086.43
-165160
-262015
-498465
-82847.7
-269347
-1185.09
-328600
-262421
-318542
-156457
-141014
-111768
-8455.16
-253178
-159048
-237223
-305547
-2272.16
-241653
-350760
-93.6972
-91.0313
-767911
-934206
-290266
-116688
-9128.32
-198.395
-195.302
-228925
-79012.3
-329147
-174691
-417.2
-274274
-413.326
-214271
-4320.4
-860.748
-216428
-40958.1
-266317
-127235
-853.097
-77105.7
-976547
-258909
-1759.13
-85663.4
-373466
-149423
-204687
-150159
-1731.96
-373688
-68873.2
-1.95293e+06
-110168
-370979
-74254.5
-9165.37
-190535
-3476.29
-243900
-334896
-364768
-62.2881
-166.985
-3481.26
-1.46928e+06
-191620
-648940
-354534
-127319
-396.193
-440664
-173226
-6861.98
-339517
-227142
-870.636
-40078.9
-78160.5
-129905
-194241
-173569
-6917.98
-89483.8
-331526
-1805.22
-174856
-413137
-318510
-927862
-337155
-176756
-419044
-341081
-422146
-443831
-12773.5
-14.7227
-13.9923
-342140
-72.8141
-3645.39
-187000
-71.2478
-420738
-217.109
-290290
-338679
-213.935
-538.669
-72887
-13225.4
-412053
-1.40704e+06
-943852
-533.17
-134800
-327859
-476986
-324885
-1206.76
-154785
-6932.99
-392265
-181817
-1201.76
-90993
-254607
-2.37894e+06
-306477
-49106.3
-143613
-2531.61
-125387
-470684
-1.1469e+06
-358717
-480856
-2532.06
-77269.2
-487294
-414872
4.19918
-274043
-78593.8
-12934.2
-487720
-36.1615
-5188.12
-87808.7
-167.737
-118328
-207302
-479365
-312460
-5170.35
-496.755
-154325
-1.42178e+06
-225669
-459131
-456353
-94424.9
-231986
-444327
-1227.79
-10093.2
-71548
-129246
-424071
-310089
-255184
-44806.4
-440725
-2725.42
-10080.6
-551990
-451912
-696719
-512648
-563132
-184780
-5.49319
-6.04024
-458386
-760937
11.1677
-371653
-183628
-566202
11.2383
-71861.3
-23.2931
-456427
-21.5556
-19300.9
-557147
-5577.19
-183.189
-159249
-1.96558e+06
-443285
-76310.6
-178.324
-94730.7
-532974
-611.864
-194845
-209394
-367652
-416985
-602.49
-302897
-20324.1
-491424
-611560
-1571.32
-412333
-106831
-10786.2
-351679
-376162
-1557.5
-146544
-174744
-430010
-3510.28
-57652.4
-70298.9
-555985
-230914
-469765
-319229
-552731
-40.4151
-3495.54
4.12221
-96749.2
-543181
-142707
-380526
0.114477
-352376
-525829
-7135.41
-20480.9
-134.841
-248004
-70331.6
-499168
-252271
-561.974
-7145.44
-106307
-462352
-75268.8
-185510
-270618
-1578.33
-2.38064e+06
-143465
-313510
-13567.9
-172134
-416314
-539601
-130677
-95004.6
-189882
-3704.72
-426121
-539087
-453090
-187.811
-189.698
-13518
-95589.2
-550824
-47748.1
-92.4879
-364080
-94.6342
-438236
-9.07311
-531844
-10.3469
-203806
-422433
9.68321
-509838
10.6004
-69087.9
-402817
-228749
-140992
-146.138
-152523
-482204
-7798.4
-141.802
-26303.4
-309033
-378097
-154296
-339672
-387044
-553547
-682.536
-448392
-94272.2
-675.128
-348851
-410690
-1962.5
-27339.5
-161647
-317887
-256421
-1955.17
-15085.9
-284966
-73976.4
-371186
-499474
-88987.3
-1.94857e+06
-4599.62
-493616
-285790
-280.373
-129426
-156.799
-450091
-48813.7
-107639
-38.266
-4617.3
-332929
-447786
-258515
-89895.9
16.8792
-442859
-83747.6
-215543
-179615
-256917
-113.173
-9506.32
-435089
-309524
-28575.7
-123162
-424430
-660.708
-67717.8
-48840.3
-300861
-9562.46
-113413
-410984
-234345
-2035.66
-1.14401e+06
-6470.57
-394861
-85267
-17858.8
-210427
-272597
-184338
-540469
-571.856
-571.492
-408.159
-84105.2
-409.665
-4923.6
-180243
-225.751
-375663
-227.954
-56.7712
-235929
-71984.8
-336695
-17948.1
-58.1369
-2.37922e+06
-210114
-415995
-49254.6
21.5914
-337251
-99581.8
21.882
-417722
-339673
-148.066
-352290
-421170
-384025
-147.013
-342988
-10414.7
-242308
-71395.9
-425195
-77544.1
-83921.8
-31641.3
-852.301
-346358
-122044
-855.92
-428463
-96903.4
-1.29467e+06
-348524
-326357
-197393
-2576.64
-430381
-65538.7
-31496.4
-349642
-2597.55
-178351
-19487.2
-429397
-488227
-720.18
-532.559
-252187
-259867
-6084.57
-124219
-312.954
-346596
-76842.5
-69915.4
-302754
-98.4029
-129326
-422357
-6195.08
22.7021
-416566
-51655.3
-1.94903e+06
-432934
-338064
-174052
-127.598
-72241.9
-340753
-68232.9
-448268
-12205.5
-409937
-877.888
-461720
-34692
-58548.9
-299220
-125373
-472074
-326967
-12119.5
-51788.1
-59983.8
-646755
-2794.84
-478077
-394789
-502786
-1184.93
-22655.8
-478154
-1179
-953.705
-223825
-951.419
-679.465
-680.056
-314901
-379.683
-6745.05
-618764
-381.032
-61211.4
-104.771
-117116
-471631
-105.181
-80716.4
-364159
29.4341
-22897
-375143
-208182
-50641.1
29.7628
-392844
-57200.6
-347515
-202.357
-498102
-2.50478e+06
-413923
-458759
-205.995
-523143
-13278.4
-163645
-298841
-433309
-548031
-1196.42
-545387
-38731
-449845
-1218.88
-563259
-77450.7
-439847
-1.72023e+06
-45324.3
-462132
-61285.5
-327196
-3555.79
-575362
-40084
-469334
-1.08694e+06
-3567.6
-221231
-245732
-581572
-38699.4
-433140
-1366.26
-1.92372e+06
-25310.8
-1120.93
-472120
-814.369
-34983.8
-293962
-415875
-466.24
-7752.85
-581531
-138.884
-469482
31.6039
-83283.4
-114092
-7727.34
-573362
-922516
-211.386
-186671
-59197.2
-30805.4
-53212.8
-459200
-2.1351e+06
-506743
-388846
-15804.2
-530011
-1307.27
-555709
-551721
-562515
-42276.5
-910857
-441079
-16129.9
-571208
-3874.21
-32057.3
-57109.5
-108933
-527685
-587160
-184163
-401493
-385563
-1957.72
-1949.38
-21149
-1669.84
-1665.16
-1315.27
-597963
-1313.95
-1.23634e+06
-413698
-902.704
-27854.9
-902.634
-467.051
-49813.5
-466.788
-8786.66
-130919
-97.0665
-601801
-96.4158
-495709
30.8197
31.0168
-264105
-597154
-27439.5
-80643.3
-114961
-693315
-386.842
-387752
-61973.3
-2.97651e+06
-389.125
-171628
-13625.2
-980724
-583018
-17486.8
-490998
-1771.92
-621415
-9635.14
-449882
-3.15251e+06
-515139
-1757.48
-650231
-42792.7
-537681
-408662
-558464
-40450.1
-677178
-4715.72
-159943
-381089
-76237.5
-558792
-701013
-19248.4
-4818.39
-312748
-2098.78
-576279
-1798.19
-1415.33
-719164
-961.092
-6614.58
-522136
-29425.4
-40605.2
-482.035
-734097
-588208
-10709.2
-169412
-1.50204e+06
-85.6015
-729188
-592590
24.1711
-10457
-728783
-816455
-481.804
-78766.2
-474202
-587586
-104031
-2.70172e+06
-33436.7
-56267.4
-716481
-18812.5
-2062.19
-2330.23
-154174
-572720
-2.34794e+06
-612731
-691452
-42958.1
-116902
-641480
-18144.3
-81235.3
-435310
-547011
-5655.06
-3.10401e+06
-331370
-667224
-50619.9
-237692
-2.21588e+06
-2563.8
-651630
-2561.04
-2250.58
-2250.18
-1852.07
-1853.5
-1372.12
-689655
-8236.12
-1375.04
-97488.7
-839.194
-844.211
-508245
-28778.2
-330.198
276.684
811.764
-332.924
-707719
-11570.9
6.69455
-23790
5.55818
-602744
-720017
-472732
-73.8794
-1.39981e+06
-143134
-68.5779
-468108
-26800
-724540
-919.533
-3.96496e+06
-65528.4
-3.52537e+06
-888.355
-97155
-52096.4
-718728
-19460.4
-540700
-3038.59
-428933
244.625
-122344
-3116.01
-79231.2
-701382
-412068
-37179.9
-1.19274e+06
-598918
-7000.22
-756529
-14969.5
-626344
-671215
-155828
-2688.63
-395102
-2339.64
-788417
-58976.2
-6724.58
-252570
-1894.01
-1357.76
-650647
-776.41
-818391
-27959
-254.312
-1198.57
-32157.5
-674808
-12554.2
-626510
-2579.8
-300175
35.5963
-846681
-696394
-190.92
-870162
-11824.8
-103463
-3.72285e+06
-712798
-579474
-791583
-1311.02
-558789
-885124
-29822.6
-56536.3
-720444
-40267.4
-71029.3
-18967.9
-7820.62
-886707
-7913.12
-3861.64
-663022
-45629.3
-715479
-6886.89
-33146.1
-873157
-99299.7
-475942
-17168.4
-698559
-7922.9
-1.08429e+06
-843261
-91437.6
-2779.71
-2786.99
-2368.54
-2375.67
-1849.17
-1858.37
-727083
-1242.64
-33163.5
-1250
-610.37
-667427
-613.618
-114.694
-135285
-123.534
-24128.9
-769270
27.1748
-791840
-424883
-60094.9
31.8845
-13422.1
-740776
-545.956
-14803.7
-801675
-613951
375.345
-507.498
-5.64831e+06
-48677.6
-299.948
-1841.77
-2296.9
-235.296
-824355
-5.47922e+06
-3003.61
-708690
-2195.92
-20463.3
-8424.52
-16148.9
-837645
-5691.99
-530892
-39292.9
-374813
-25753.6
-5344.62
-33479.1
-18848.2
-1.12414e+06
-841816
-54840.3
-36771.6
-21259.1
-600393
-4.64714e+06
-2352.11
-11119.2
39.1922
-764.27
-833755
-48505.2
-3810.04
-22442.1
-25639.2
-10447.7
-11504
-435970
-17197
-125216
-65743.3
-33325.1
-809095
-38914.8
-60185
-18250.1
-64329.5
-452472
-67112.9
-101354
-763427
-16778.2
-31546.5
249.087
-71078.3
-98331.9
-2.09231e+06
-21763.1
-20559.6
-34535.4
-333174
-140999
-95585.1
-764608
-25646.7
-693431
-131182
-3677.61
-986770
-180436
-33901.4
-831488
-79861.9
-5329.18
-771868
-5.1339e+06
-161914
-1.04821e+06
-22562.2
-598073
-3124.42
-1235.01
-863831
-215523
-1.07246e+06
-27615.8
-52762.7
-995989
-21577.7
-187534
-20948.6
-871091
-30307.7
-85679.3
-1.07029e+06
-487201
-34089.7
-368388
-241418
-58383.4
-860847
-20431.8
-3.15745e+06
-1.05122e+06
-203690
-24895.8
-839905
424.736
-107985
-43844.5
-46994.4
-365598
-1.01619e+06
-46573.4
-254325
-804084
-3.61137e+06
-14803.4
-15007.1
-88300.2
-163528
-958579
-208155
-29014.5
-3223.89
-746372
-5.6603e+06
258.28
-219763
-876978
-243758
-251377
-2.30262e+06
-24736.5
-6324.05
-671756
-67276.3
-21447.4
-770197
-17755
-7.39786e+06
-271245
-199216
-57324.7
-574034
-43401.6
-88468.7
-12863.6
-826041
-655745
-13770
-636282
-171781
-57689.9
-232392
-785980
-457097
-309878
-18331.6
-20171.7
-101318
-8115.26
-486927
-72522.8
-751884
-303482
-110068
-178017
-335168
-169576
-718296
-125585
-330491
-21174.3
-336029
-896545
-11213.3
-169523
-72037.3
-7330.28
-680492
-87903.1
-68114.3
-215418
-201535
-242537
-59014.2
-635881
-178863
-328729
-225248
-584008
-85807.6
-150162
-40412.7
-6841.39
-16924.4
-3533.35
-309018
-717892
-524570
7097.14
-6.81364e+06
-275337
-4701.08
-457473
-90644.3
-300934
-13377.4
-9134.51
-167032
48.5021
-6.44803e+06
-360000
-87554
-358718
-912.408
-381731
9657.69
-307738
-279230
-677245
-161169
-7685.54
-122904
-294409
-800008
-3891.1
5131.31
-308729
-387874
-619387
-253553
-731620
-222700
-193761
-386071
-566024
-1647.36
-320727
-8.41083e+06
549.712
-665306
-240664
-21387.3
-132355
-511497
-83899.4
-819950
-26390.3
-390597
-167625
-596846
465.076
-455046
-115767
-169243
-531523
-656225
3650.74
-90502
-312113
-48952.6
-196711
-405474
-9.58558e+06
-95747.5
-109381
-472816
-331.731
-303803
-359585
-359948
-138297
-2648.46
-414932
-104233
-311970
-163915
-76562.4
-353680
-63000.5
-271595
-116219
-260509
-105159
-48270.9
-282464
-59353.6
-197195
-142424
481.131
-299538
-191659
-23026.5
-98221.1
-310432
-36863.5
-115604
-86606.4
-4739.63
-216655
-30795.8
-78207.9
-96165.9
-32626
-2603.49
-521061
-787.782
369.69
-15854.2
-110135
-228636
-99120
423.8
-305810
-13411.5
-8.66651e+06
-250581
-1.00568e+06
-101105
-95592.6
-1.62476e+06
-159121
-6599.68
-2.18343e+06
-112770
-84655.9
-1.84253e+06
-509870
-5483.63
681.62
-163770
-35702.6
-161666
-266216
-80329.7
-2671.97
-681236
-7.89864e+06
-789954
-106838
-76621.3
-112299
-556027
-1294.99
-75988
-469636
-251743
-188881
-181.391
-113163
-138169
-113136
-92910.1
250.412
-1.19584e+07
-8.41038e+06
-77067.7
-276.222
-94471.5
-1653.98
-67927.3
-75200
-78929.8
-3137.81
-17.8991
-57767.5
-5739.65
-124730
-58852.5
-6722.49
-66148.4
-208440
-1.06466e+07
-71495.5
-9963.27
-10590.1
-62666.2
-46605.9
-53836.7
-9955.98
-8970.63
-1.12333e+07
-14047.4
-65932.3
-7981.18
-13820.4
-41187.3
-6925.23
-83600.7
-58538.9
-18439.6
-6173.11
-17657.9
-1.44719e+07
-40491.4
-82046.5
-24202.9
-5545.28
-76674.2
-23432.1
-3675.6
-49609.2
-30965.4
-29787.7
-2529.86
-1.04878e+07
-1.27228e+07
-41222.1
-69263.8
-2190.56
-1.01693e+07
-39700.4
-1675.58
-57252
-56860
-106.385
-1.69644e+07
408.316
434.683
53.3893
-1.46577e+07
-51913.9
-1.40856e+07
-53649.8
-51892.9
-49951.7
-1612.66
-48218.5
-46191.1
-44351.6
-42899
-1.26734e+07
-40699.2
-5028.91
-38880.2
-37530.5
-35636
-8896
-31750.3
-27032.7
-20541.3
-16419.7
-15066.1
-14755.4
-1.2488e+07
-12416.4
-12056.1
-21065.1
-11063.1
-9332.22
-30639.9
-7224.24
-4762.43
-2992.12
-1700.17
-623.278
251.397
-1.49658e+07
707.554
-1.70135e+07
917.01
830.654
309.422
-506.642
-1656.74
-2654.39
-7101.19
-11105.1
-1.48922e+07
-13816.1
-19409.7
-27437
-1.73565e+07
-5994.79
-35674
-4970.19
-3983.57
-3102.12
-2206.97
-1615.16
-2.00665e+07
-934.069
1285.56
1725.68
1470.01
1270.53
-53.7383
-1.74119e+07
-1713.49
-3678.43
-7291.47
-12074
-16177.1
-2.34122e+07
-26335
-37754
-56254.2
-2.03129e+07
-8789.48
-8029.3
-7412.86
-6897.75
-6300.87
-5827.49
-5270.49
-4791.73
-4319.65
-3905.15
-3533.84
-3062.55
-2776.67
-1746.93
-1849.14
-2656.62
-2348.53
-2082.93
-1479.01
-761.922
-1369.19
-1506.67
-1483.62
-1823.32
-1557.95
-1093.08
-114.697
170.224
832.754
267.386
-1368.07
-4668.2
-8127.45
-10431.2
-17718.9
-28790.1
-35637.7
-45770.2
-59293.7
-74503.8
SCALARS cohesion float 1
LOOKUP_TABLE default
10.4644
9.96205
11.978
9.25823
13.0114
10.9472
13.9071
12.6992
13.4073
12.8255
13.7569
13.6158
11.1111
10.2769
11.9234
17.8192
9.00253
10.6216
9.57474
15.9429
9.57627
14.2725
8.95019
14.5286
9.45815
13.1383
14.8172
14.2361
9.96103
12.9948
14.7074
11.2091
12.0586
8.25547
10.3985
13.1602
11.6516
16.3167
14.0659
8.84408
10.4872
14.7901
15.2442
15.806
10.617
16.417
9.65274
15.0207
9.9648
15.6492
11.5953
15.528
9.06041
15.238
14.7801
15.0614
15.0817
13.9384
9.16326
9.0769
9.32637
13.7507
9.50025
10.2923
15.738
12.8559
13.3897
21.8224
17.4021
10.3336
15.3604
16.7317
15.6367
13.0849
14.5682
9.36567
16.0222
10.8069
14.703
11.6969
14.0456
16.7164
13.9958
12.7323
13.378
13.3717
13.1663
13.2918
13.3232
13.0139
13.33
13.2006
13.4234
13.2589
14.6335
16.6569
13.1274
13.2046
13.2836
13.2713
13.2084
13.268
13.3124
13.4219
13.3182
13.2627
13.4155
13.2052
13.2657
13.1323
13.3476
14.6774
13.2864
13.1523
16.6444
13.6691
9.14958
13.2818
13.1587
13.3378
15.1283
13.223
14.6982
13.3681
13.1698
13.2933
13.0905
13.2992
13.1784
13.456
13.1034
13.3908
13.2509
13.3198
13.193
16.7628
13.0434
13.3385
13.3807
13.0486
13.1236
13.2073
13.0569
13.3402
10.5094
13.4197
13.0653
13.2279
13.3667
13.0745
13.2925
12.9736
13.1515
13.5195
14.785
16.9267
13.3719
13.0885
13.4537
12.9854
13.2494
13.4427
13.103
13.0044
13.4061
12.9123
13.4025
13.1934
12.9193
13.2792
13.1236
12.9257
13.6066
13.4953
13.3536
16.9543
12.9352
13.0324
13.1439
12.9445
13.3094
13.4473
13.4451
13.6126
12.9582
12.8329
15.3983
13.5368
13.1727
12.9717
14.9128
13.2519
12.8454
13.0721
13.5285
17.0251
13.3504
13.488
12.991
12.8635
13.2013
13.5002
13.438
12.7753
13.0104
12.7812
13.5995
12.8897
12.7873
13.3928
12.796
13.1282
13.2417
13.0378
12.8048
13.548
17.0885
13.3346
13.5718
14.0419
12.8174
12.9274
13.7368
10.0832
13.0658
12.8302
13.6613
12.7391
13.2835
13.4522
10.8524
13.6523
12.7508
12.8488
15.0862
13.6111
17.1513
13.1055
12.7682
12.8678
13.2096
13.5606
12.9822
13.6567
13.3423
15.5507
13.5147
12.7939
12.8947
12.8052
13.7512
17.3883
13.1466
12.8112
12.8172
13.4559
12.8261
12.9223
13.6994
12.835
12.8313
17.2961
13.4043
14.4037
12.8481
13.0627
13.6625
13.7504
13.2049
13.6013
12.8612
13.9186
12.9618
13.8434
13.3288
12.8802
13.8333
13.0763
12.8863
13.7908
13.0893
12.8996
13.0025
15.3337
13.4886
13.2644
13.7389
17.4075
13.1083
12.9273
13.6921
13.8791
13.1362
13.0584
13.6318
12.9555
13.1787
11.7583
13.9734
12.9653
15.8613
13.4286
14.7689
13.3482
13.579
13.4356
13.9191
13.1766
13.4427
12.9946
13.4529
17.5856
13.1173
13.463
13.502
13.8179
13.4777
13.0349
13.4925
14.0214
13.2342
14.1862
13.4361
14.1073
13.5135
14.0964
13.7015
13.0801
13.1992
13.5346
14.053
13.0923
13.9855
17.759
13.9984
13.3475
14.0009
15.6739
13.5657
15.0701
13.949
10.4447
13.3185
14.0236
13.5974
13.1509
13.8856
13.5549
13.283
14.0559
14.198
13.8296
16.2286
13.6405
14.2909
12.7291
14.103
13.7479
14.2304
14.3945
17.9856
13.2306
13.2428
13.6841
14.403
14.4115
13.4366
14.4235
14.1224
13.6775
13.3971
14.4356
14.1684
15.3489
8.92379
14.4528
13.7447
14.47
13.3122
14.3931
13.8924
13.582
13.9961
14.551
14.4939
14.4736
14.4579
14.5178
13.8059
14.4109
18.1972
14.2606
13.5113
14.3511
14.552
13.8361
14.297
14.3422
16.1181
13.5983
13.4186
14.5863
14.359
14.2267
13.887
16.5839
14.3825
13.4623
15.5651
14.1641
14.6325
13.4673
14.4154
14.6267
14.3848
14.073
14.6784
14.7031
13.6584
13.9673
18.7403
18.4941
13.5253
14.4615
14.6345