# vtk DataFile Version 3.0
File generated from DClib
ASCII

DATASET UNSTRUCTURED_GRID
POINTS 1909 float
50 0 0 
48.75 0 0 
50 1.66667 0 
47.5 0 0 
50 3.33333 0 
46.25 0 0 
50 5 0 
45 0 0 
43.75 0 0 
50 6.66667 0 
43 2 0 
42.5 0 0 
50 8.33333 0 
43 4.66667 0 
41.25 0 0 
41.075 2 0 
50 10 0 
40 0 0 
43 7.33333 0 
39.15 2 0 
38.75 0 0 
43 10 0 
37.5 0 0 
37.225 2 0 
36.25 0 0 
36 4 0 
35.3 2 0 
36 5 0 
35 0 0 
35.325 4 0 
36 6 0 
36 7 0 
34.65 4 0 
36 8 0 
33.75 0 0 
33.975 4 0 
36 9 0 
33.375 2 0 
33.3 4 0 
36 10 0 
32.5 0 0 
32.625 4 0 
33 6 0 
31.95 4 0 
33 7.45455 0 
31.45 2 0 
31.25 0 0 
31.95 6 0 
33 8.79545 0 
31.275 4 0 
33 10 0 
30.6 4 0 
30 0 0 
30.9 6 0 
29.925 4 0 
29.525 2 0 
29.85 6 0 
29.25 4 0 
28.75 0 0 
30 8 0 
30 8.45455 0 
28.575 4 0 
29.625 8 0 
30 8.90909 0 
28.8 6 0 
30 9.25 0 
29.782 8.90909 0 
30 9.59091 0 
29.9487 9.59091 0 
29.25 8 0 
29.7462 9.25 0 
30 9.79545 0 
29.897 9.59091 0 
29.564 8.90909 0 
29.9547 9.79545 0 
29.3462 8.45455 0 
29.84 9.59091 0 
30 10 0 
29.8975 9.79545 0 
29.9882 10 0 
29.9902 10.0098 0 
29.7827 9.59091 0 
29.9765 10 0 
29.9804 10.0196 0 
29.9667 10.0098 0 
29.9591 10 0 
29.9686 10.0196 0 
29.9659 10.0341 0 
29.9569 10.0196 0 
29.9418 10 0 
29.9395 10.0196 0 
29.9515 10.0485 0 
29.932 10.0098 0 
29.9424 10.0341 0 
29.8241 9.79545 0 
29.7181 9.59091 0 
29.9166 10 0 
29.9397 10.0485 0 
29.9222 10.0196 0 
29.9279 10.0485 0 
29.9305 10.0695 0 
29.8914 10 0 
29.9077 10.0341 0 
27.9 4 0 
29.897 10.0196 0 
29.9106 10.0485 0 
29.8817 10.0098 0 
29.907 10.0695 0 
29.8933 10.0485 0 
29.9095 10.0905 0 
29.8719 10.0196 0 
27.6 2 0 
29.8556 10 0 
29.8978 10.0905 0 
29.6531 9.59091 0 
29.3437 8.90909 0 
27.5 0 0 
29.8681 10.0485 0 
29.886 10.0905 0 
29.8574 10.0341 0 
29.4839 9.25 0 
29.8723 10.0695 0 
29.7289 9.79545 0 
29.836 10.0196 0 
29.8687 10.0905 0 
29.8197 10 0 
29.8797 10.1203 0 
29.843 10.0485 0 
29.8513 10.0905 0 
29.81 10.0098 0 
29.8561 10.1203 0 
29.8002 10.0196 0 
29.8221 10.0695 0 
29.8072 10.0485 0 
29.8262 10.0905 0 
29.5782 9.59091 0 
29.8498 10.1502 0 
29.7695 10 0 
29.7858 10.0341 0 
29.838 10.1502 0 
29.8215 10.1203 0 
29.8011 10.0905 0 
29.8262 10.1502 0 
29.7714 10.0485 0 
28.875 8 0 
29.75 10.0196 0 
29.8089 10.1502 0 
29.7654 10.0905 0 
29.7193 10 0 
29.7916 10.1502 0 
29.7505 10.0695 0 
29.8079 10.1921 0 
29.7713 10.1203 0 
29.7096 10.0098 0 
29.6047 9.79545 0 
29.503 9.59091 0 
29.7213 10.0485 0 
29.7665 10.1502 0 
29.6999 10.0196 0 
29.7844 10.1921 0 
29.7296 10.0905 0 
29.6856 10.0341 0 
29.7414 10.1502 0 
29.7497 10.1921 0 
29.6503 10 0 
29.7661 10.2339 0 
29.6712 10.0485 0 
29.6999 10.1203 0 
29.7543 10.2339 0 
29.6796 10.0905 0 
29.7057 10.1502 0 
29.7425 10.2339 0 
29.1235 8.90909 0 
29.6309 10.0196 0 
29.6504 10.0695 0 
29.4146 9.59091 0 
29.7252 10.2339 0 
29.6996 10.1921 0 
29.6701 10.1502 0 
29.7079 10.2339 0 
29.6296 10.0905 0 
29.5813 10 0 
29.6023 10.0485 0 
29.5716 10.0098 0 
29.6828 10.2339 0 
29.7086 10.2914 0 
29.2101 9.25 0 
29.562 10.0196 0 
29.6201 10.1502 0 
29.6578 10.2339 0 
29.4428 9.79545 0 
29.5999 10.1203 0 
29.6849 10.2914 0 
29.6283 10.1921 0 
29.5477 10.0341 0 
29.3259 9.59091 0 
29.5608 10.0905 0 
29.5335 10.0485 0 
29.6221 10.2339 0 
29.6503 10.2914 0 
29.5702 10.1502 0 
29.4881 10 0 
29.5128 10.0695 0 
29.6511 10.3489 0 
29.5866 10.2339 0 
29.6392 10.3489 0 
29.4689 10.0196 0 
29.6002 10.2914 0 
29.6273 10.3489 0 
29.4921 10.0905 0 
29.61 10.3489 0 
29.5286 10.1921 0 
29.5016 10.1502 0 
29.5368 10.2339 0 
29.5926 10.3489 0 
29.4405 10.0485 0 
29.2199 9.59091 0 
29.4626 10.1203 0 
29.3949 10 0 
28.9 8.90909 0 
29.5676 10.3489 0 
29.5291 10.2914 0 
29.3853 10.0098 0 
28.6923 8.45455 0 
29.487 10.2339 0 
29.5426 10.3489 0 
29.3758 10.0196 0 
29.5734 10.4266 0 
29.4331 10.1502 0 
29.3993 10.0905 0 
28.5 8 0 
29.3617 10.0341 0 
29.5496 10.4266 0 
29.5071 10.3489 0 
29.2327 9.79545 0 
29.3475 10.0485 0 
29.1136 9.59091 0 
29.4187 10.2339 0 
29.5148 10.4266 0 
29.4716 10.3489 0 
29.3918 10.1921 0 
29.3271 10.0695 0 
29.4298 10.2914 0 
29.2714 10 0 
29.3406 10.1502 0 
28.9208 9.25 0 
29.3066 10.0905 0 
29.4648 10.4266 0 
29.422 10.3489 0 
29.4958 10.5042 0 
29.2524 10.0196 0 
27.75 6 0 
29.3504 10.2339 0 
29.4837 10.5042 0 
29.4718 10.5042 0 
29.2774 10.1203 0 
29.4543 10.5042 0 
29.3724 10.3489 0 
29.2244 10.0485 0 
29.4369 10.5042 0 
29.3938 10.4266 0 
28.9853 9.59091 0 
29.2481 10.1502 0 
28.6766 8.90909 0 
29.4119 10.5042 0 
29.2934 10.2914 0 
27.225 4 0 
29.148 10 0 
29.2582 10.2339 0 
29.1837 10.0905 0 
29.3869 10.5042 0 
29.1385 10.0098 0 
29.3044 10.3489 0 
29.1291 10.0196 0 
29.2072 10.1921 0 
29.3514 10.5042 0 
29.1152 10.0341 0 
29.3929 10.6071 0 
29.2949 10.4266 0 
29.1013 10.0485 0 
29.3686 10.6071 0 
29.316 10.5042 0 
29.2364 10.3489 0 
28.9623 9.79545 0 
29.1257 10.1502 0 
29.1662 10.2339 0 
29.0811 10.0695 0 
28.8566 9.59091 0 
29.3336 10.6071 0 
29.2666 10.5042 0 
29.0609 10.0905 0 
28.9875 10 0 
29.2835 10.6071 0 
29.1448 10.3489 0 
29.0321 10.1203 0 
29.2173 10.5042 0 
29.1098 10.2914 0 
28.125 8 0 
28.9688 10.0196 0 
29.1594 10.4266 0 
28.611 9.25 0 
29.29 10.71 0 
28.4486 8.90909 0 
29.0443 10.2339 0 
29.0033 10.1502 0 
29.2777 10.71 0 
28.9413 10.0485 0 
29.2128 10.6071 0 
29.2655 10.71 0 
29.1497 10.5042 0 
29.2478 10.71 0 
28.7003 9.59091 0 
29.0533 10.3489 0 
29.2303 10.71 0 
28.9629 10.1921 0 
28.9013 10.0905 0 
29.2051 10.71 0 
29.0822 10.5042 0 
29.1801 10.71 0 
28.827 10 0 
29.1144 10.6071 0 
28.8177 10.0098 0 
28.9225 10.2339 0 
28.8085 10.0196 0 
29.1447 10.71 0 
28.7949 10.0341 0 
28.8443 10.1502 0 
28.977 10.4266 0 
28.9322 10.3489 0 
29.1094 10.71 0 
28.7813 10.0485 0 
28.9912 10.5042 0 
29.1562 10.8438 0 
28.5436 9.59091 0 
28.7615 10.0695 0 
28.8669 10.2914 0 
29.1313 10.8438 0 
28.6184 9.79545 0 
29.0602 10.71 0 
28.2207 8.90909 0 
28.7418 10.0905 0 
28.0378 8.45455 0 
28.9798 10.6071 0 
29.0958 10.8438 0 
29.0112 10.71 0 
28.9005 10.5042 0 
28.7136 10.1203 0 
28.7644 10.2339 0 
28.8113 10.3489 0 
29.0454 10.8438 0 
28.6223 10 0 
28.6854 10.1502 0 
28.2746 9.25 0 
28.9441 10.71 0 
28.6042 10.0196 0 
27.75 8 0 
28.9747 10.8438 0 
28.6459 10.1921 0 
28.5773 10.0485 0 
29.0225 10.9775 0 
28.3532 9.59091 0 
28.7804 10.5042 0 
28.736 10.4266 0 
28.8772 10.71 0 
29.0097 10.9775 0 
28.9971 10.9775 0 
28.799 10.6071 0 
28.9791 10.9775 0 
28.5384 10.0905 0 
28.6064 10.2339 0 
28.6543 10.3489 0 
28.9611 10.9775 0 
28.8769 10.8438 0 
27.9867 8.90909 0 
26.25 0 0 
28.9358 10.9775 0 
28.7871 10.71 0 
28.9106 10.9775 0 
28.6607 10.5042 0 
28.4177 10 0 
26.55 4 0 
28.552 10.2914 0 
28.483 10.1502 0 
28.4087 10.0098 0 
28.8751 10.9775 0 
28.3998 10.0196 0 
28.3866 10.0341 0 
28.8399 10.9775 0 
28.6974 10.71 0 
28.3735 10.0485 0 
28.1625 9.59091 0 
28.7436 10.8438 0 
28.4976 10.3489 0 
28.3543 10.0695 0 
28.791 10.9775 0 
28.4052 10.2339 0 
28.3352 10.0905 0 
28.8519 11.1481 0 
28.1869 9.79545 0 
28.5607 10.6071 0 
28.5053 10.5042 0 
28.7423 10.9775 0 
28.8258 11.1481 0 
28.308 10.1203 0 
28.5787 10.71 0 
27.904 9.25 0 
28.7893 11.1481 0 
28.424 10.4266 0 
27.7528 8.90909 0 
28.2807 10.1502 0 
28.6758 10.9775 0 
27.375 8 0 
28.7383 11.1481 0 
28.1619 10 0 
28.5649 10.8438 0 
28.2425 10.1921 0 
28.6096 10.9775 0 
28.1444 10.0196 0 
28.298 10.3489 0 
28.4605 10.71 0 
26.7 6 0 
27.9315 9.59091 0 
28.3503 10.5042 0 
28.6676 11.1481 0 
28.1187 10.0485 0 
28.2042 10.2339 0 
28.5207 10.9775 0 
28.0813 10.0905 0 
28.6814 11.3186 0 
27.3818 8.45455 0 
28.6679 11.3186 0 
28.1516 10.2914 0 
28.5703 11.1481 0 
28.6544 11.3186 0 
28.6358 11.3186 0 
27.5109 8.90909 0 
28.3072 10.71 0 
28.6173 11.3186 0 
28.2524 10.6071 0 
28.4322 10.9775 0 
28.028 10.1502 0 
28.5915 11.3186 0 
28.0989 10.3489 0 
28.33 10.8438 0 
28.5658 11.3186 0 
28.153 10.5042 0 
27.9061 10 0 
27.8975 10.0098 0 
28.5303 11.3186 0 
28.4384 11.1481 0 
27.7002 9.59091 0 
27.889 10.0196 0 
27.8765 10.0341 0 
28.4949 11.3186 0 
28.3154 10.9775 0 
27.9532 10.2339 0 
27.8639 10.0485 0 
28.0276 10.4266 0 
28.1544 10.71 0 
27.8457 10.0695 0 
27.4909 9.25 0 
28.4463 11.3186 0 
27 8 0 
27.8275 10.0905 0 
28.3979 11.3186 0 
27.8015 10.1203 0 
27.6542 9.79545 0 
25.675 2 0 
28.1991 10.9775 0 
27.2691 8.90909 0 
27.9563 10.5042 0 
28.4682 11.5318 0 
28.2625 11.1481 0 
27.7755 10.1502 0 
28.3322 11.3186 0 
27.8502 10.3489 0 
28.4401 11.5318 0 
25.875 4 0 
27.7391 10.1921 0 
28.4019 11.5318 0 
28.0268 10.8438 0 
28.2668 11.3186 0 
27.9602 10.71 0 
28.3498 11.5318 0 
27.4223 9.59091 0 
27.7026 10.2339 0 
27.5927 10 0 
28.0486 10.9775 0 
27.8616 10.6071 0 
27.5762 10.0196 0 
28.1794 11.3186 0 
28.2786 11.5318 0 
27.5519 10.0485 0 
27.6524 10.2914 0 
28.0319 11.1481 0 
27.7108 10.5042 0 
27.5167 10.0905 0 
27.0169 8.90909 0 
28.0924 11.3186 0 
27.6021 10.3489 0 
27.8988 10.9775 0 
28.1818 11.5318 0 
27.7667 10.71 0 
26.625 8 0 
28.255 11.745 0 
27.4664 10.1502 0 
28.2402 11.745 0 
28.2256 11.745 0 
28.2059 11.745 0 
27.978 11.3186 0 
26.7234 8.45455 0 
27.0259 9.25 0 
27.5342 10.4266 0 
28.1863 11.745 0 
27.1442 9.59091 0 
28.0516 11.5318 0 
28.1598 11.745 0 
27.3959 10.2339 0 
28.1334 11.745 0 
27.2793 10 0 
27.2714 10.0098 0 
27.2635 10.0196 0 
27.7086 10.9775 0 
27.6431 10.8438 0 
28.0975 11.745 0 
27.8643 11.3186 0 
27.4661 10.5042 0 
27.2518 10.0341 0 
27.2401 10.0485 0 
28.0617 11.745 0 
26.7648 8.90909 0 
27.5255 10.71 0 
27.7353 11.1481 0 
27.2231 10.0695 0 
28.0133 11.745 0 
27.2061 10.0905 0 
27.8791 11.5318 0 
27.2986 10.3489 0 
27.1818 10.1203 0 
27.9651 11.745 0 
27.3758 10.6071 0 
27.0077 9.79545 0 
27.7174 11.3186 0 
27.1576 10.1502 0 
25 0 0 
27.5193 10.9775 0 
27.9003 11.745 0 
27.1236 10.1921 0 
26.25 8 0 
27.9939 12.0061 0 
25.65 6 0 
27.8359 11.745 0 
26.8136 9.59091 0 
27.0896 10.2339 0 
27.9626 12.0061 0 
27.2853 10.71 0 
25.2 4 0 
27.5713 11.3186 0 
27.9218 12.0061 0 
26.4998 8.90909 0 
27.167 10.5042 0 
27.6541 11.5318 0 
27.0427 10.2914 0 
27.7503 11.745 0 
26.9033 10 0 
27.8677 12.0061 0 
26.8882 10.0196 0 
26.8659 10.0485 0 
26.9958 10.3489 0 
27.2836 10.9775 0 
27.6652 11.745 0 
27.3609 11.1481 0 
27.7955 12.0061 0 
26.499 9.25 0 
[...]
POINT_DATA 1909
SCALARS phi float 1
LOOKUP_TABLE default
VECTORS Displacement float
0 0 0
0 0 0
0 -0.000448806 0
0 0 0
0 -0.000611846 0
0 0 0
0 -0.000513888 0
0 0 0
0 0 0
0 -0.000183471 0
0.00132425 -0.000409835 0
0 0 0
0 0.000364268 0
0.00259597 -0.000252412 0
0 0 0
0.00177725 -0.00040488 0
0 0.00110014 0
0 0 0
0.00347652 0.000580736 0
0.00227063 -0.000411721 0
0 0 0
0.00399468 0.00188656 0
0 0 0
0.00279392 -0.000439341 0
0 0 0
0.00533662 -0.000311088 0
0.0033192 -0.000487504 0
0.00635137 -1.01725e-05 0
0 0 0
0.00571284 -0.000337719 0
0.00712107 0.000410809 0
0.00767564 0.000924994 0
0.00607847 -0.000369973 0
0.00806551 0.00149194 0
0 0 0
0.00643972 -0.000421201 0
0.00831234 0.00209277 0
0.00381627 -0.000553292 0
0.00678864 -0.000479057 0
0.00844366 0.00269806 0
0 0 0
0.00711876 -0.000547951 0
0.00921679 0.000139504 0
0.00743235 -0.00062337 0
0.0102303 0.000947983 0
0.00425819 -0.000634025 0
0 0 0
0.00992243 -0.000152505 0
0.0107533 0.00192766 0
0.00772237 -0.000706601 0
0.0107718 0.00295202 0
0.00799104 -0.000796037 0
0 0 0
0.010509 -0.000441621 0
0.00823488 -0.000891917 0
0.00462166 -0.000728142 0
0.0110054 -0.000748098 0
0.00845302 -0.000994045 0
0 0 0
0.0128918 -9.87023e-05 0
0.0132537 0.000123342 0
0.00864546 -0.00110163 0
0.013116 -0.000298202 0
0.0136073 0.000380186 0
0.0114152 -0.00107866 0
0.0138306 0.000623678 0
0.013771 0.000213408 0
0.0140143 0.000915858 0
0.0140662 0.000818732 0
0.0133131 -0.000497765 0
0.0140297 0.000366455 0
0.0140667 0.00112486 0
0.0141095 0.000733727 0
0.0139143 4.75379e-05 0
0.0141201 0.000998257 0
0.0136674 -0.000286846 0
0.0141502 0.000650755 0
0.0140206 0.00135704 0
0.0141819 0.000872485 0
0.0140413 0.00135387 0
0.0150289 0.00175846 0
0.0141868 0.000578015 0
0.0140671 0.00134227 0
0.0152127 0.00182988 0
0.0148586 0.00162072 0
0.0141074 0.00129662 0
0.015181 0.00174418 0
0.0151874 0.00174068 0
0.0151442 0.0016673 0
0.0141487 0.00125048 0
0.0150664 0.00155906 0
0.0151411 0.00164926 0
0.014724 0.00143145 0
0.0151555 0.00158828 0
0.0142524 0.000751588 0
0.0142306 0.000511822 0
0.0142084 0.00117336 0
0.0151322 0.00157453 0
0.0149873 0.00146249 0
0.0151211 0.00150504 0
0.0151056 0.00152928 0
0.0142667 0.00111154 0
0.0150735 0.00140507 0
0.00880867 -0.00121618 0
0.0148887 0.00133862 0
0.0151008 0.00141506 0
0.0146245 0.0012172 0
0.0150886 0.00139523 0
0.0150754 0.00133797 0
0.0150873 0.00141628 0
0.014819 0.00124197 0
0.0048855 -0.000834897 0
0.0143454 0.00103852 0
0.0150801 0.00135225 0
0.0142748 0.000453114 0
0.0140496 -0.000109 0
0 0 0
0.0150373 0.00125077 0
0.0150726 0.00129693 0
0.0149464 0.0012203 0
0.0142004 0.000144732 0
0.0150577 0.00124868 0
0.014345 0.000648976 0
0.0147568 0.00113387 0
0.0150608 0.00122799 0
0.0144208 0.00098148 0
0.0150841 0.001273 0
0.0149983 0.00118099 0
0.0150504 0.00117401 0
0.0146135 0.00103517 0
0.0150763 0.00118145 0
0.0147369 0.00105342 0
0.0150112 0.00111644 0
0.0149547 0.00109947 0
0.0150361 0.00111255 0
0.0143295 0.000395232 0
0.0150961 0.00115954 0
0.0145167 0.00092373 0
0.01485 0.0010505 0
0.0150968 0.00112543 0
0.015067 0.00109163 0
0.0150239 0.00106176 0
0.0150977 0.0010965 0
0.0149214 0.00103096 0
0.0135031 -0.000700245 0
0.0147373 0.000966265 0
0.0150992 0.0010611 0
0.0150101 0.00100181 0
0.0146046 0.000870184 0
0.0151006 0.00103024 0
0.0149635 0.000986947 0
0.0151689 0.00105834 0
0.0150589 0.00100223 0
0.0146909 0.000886753 0
0.0144755 0.00055721 0
0.014388 0.00034137 0
0.014896 0.000946817 0
0.0151026 0.000991528 0
0.0147627 0.000893651 0
0.0151699 0.00101774 0
0.0150014 0.000949138 0
0.0148341 0.000887058 0
0.0151049 0.000957452 0
0.015174 0.000969084 0
0.0147081 0.000808564 0
0.0152461 0.000989342 0
0.0148922 0.000874496 0
0.015057 0.000907324 0
0.0152474 0.000975165 0
0.0149985 0.000885399 0
0.0151095 0.000914234 0
0.0152492 0.000961289 0
0.0141781 -0.000258245 0
0.0148076 0.000810957 0
0.0149525 0.00085081 0
0.0144577 0.000280962 0
0.0152523 0.000941775 0
0.0151831 0.000910514 0
0.0151156 0.00087599 0
0.015256 0.000923102 0
0.015005 0.000829975 0
0.0147938 0.000737125 0
0.0149128 0.000792595 0
0.0148305 0.000735488 0
0.0152615 0.000897743 0
0.0153672 0.000924809 0
0.0143767 -5.11886e-05 0
0.0148648 0.000732508 0
0.015127 0.000827714 0
0.0152674 0.000873791 0
0.0146413 0.000445566 0
0.0150739 0.000804888 0
0.0153689 0.000902846 0
0.0151996 0.000841182 0
0.0149088 0.000726039 0
0.0145303 0.000220436 0
0.0150262 0.00076077 0
0.0149492 0.000718741 0
0.0152762 0.000841651 0
0.0153732 0.000872041 0
0.0151399 0.000782667 0
0.0148852 0.000643166 0
0.0150041 0.000707021 0
0.015477 0.000872373 0
0.0152852 0.000810779 0
0.015478 0.000863122 0
0.0149356 0.00063666 0
0.015382 0.000829459 0
0.0154791 0.000853882 0
0.0150554 0.000694557 0
0.0154811 0.00084025 0
0.0152276 0.000754 0
0.0151634 0.000720438 0
0.0152987 0.000768317 0
0.0154834 0.000826554 0
0.0150078 0.000624039 0
0.0146122 0.000145141 0
0.0151243 0.000676371 0
0.0149611 0.00054791 0
0.0143034 -0.000406273 0
0.0154871 0.00080679 0
0.0153973 0.000770331 0
0.0149842 0.000544778 0
0.0140082 -0.000679752 0
0.0153126 0.000725701 0
0.0154911 0.000786815 0
0.0150072 0.000541504 0
0.0156163 0.00081115 0
0.0151894 0.000657571 0
0.0151049 0.000602606 0
0.0136731 -0.000908161 0
0.0150389 0.000536246 0
0.0156176 0.000793699 0
0.0154974 0.000758174 0
0.0148197 0.000282451 0
0.0150705 0.000530528 0
0.0146933 6.71194e-05 0
0.0153342 0.000665263 0
0.0156204 0.000767592 0
0.0155042 0.000729039 0
0.0152757 0.000630711 0
0.0151149 0.000521457 0
0.0154225 0.000686003 0
0.0150489 0.000435347 0
0.0152316 0.000568673 0
0.0145601 -0.000252194 0
0.0151583 0.000511661 0
0.0156261 0.000728674 0
0.0155147 0.000687442 0
0.0157397 0.000751614 0
0.0150879 0.000428023 0
0.0117329 -0.00143425 0
0.0153576 0.000603083 0
0.0157403 0.000742906 0
0.015741 0.000734104 0
0.0152183 0.000496503 0
0.0157421 0.000721074 0
0.0155261 0.000644804 0
0.0151452 0.000415896 0
0.0157435 0.000707847 0
0.0156366 0.000671078 0
0.0147843 -3.10465e-05 0
0.0152762 0.000480254 0
0.0144246 -0.000555774 0
0.0157457 0.000688439 0
0.0154632 0.000563758 0
0.00894473 -0.00133477 0
0.0151274 0.000320932 0
0.0153925 0.0005167 0
0.0152256 0.000396078 0
0.0157483 0.000668662 0
0.015146 0.000316958 0
0.0155434 0.000584532 0
0.0151644 0.000312832 0
0.0153543 0.000455842 0
0.0157523 0.000639964 0
0.0151908 0.000306579 0
0.0158848 0.00067198 0
0.015655 0.000586564 0
0.0152169 0.000300064 0
0.015886 0.000653675 0
0.015757 0.000610628 0
0.0155623 0.000522706 0
0.0150088 5.68815e-05 0
0.0153351 0.000364092 0
0.015429 0.000429763 0
0.0152544 0.00029013 0
0.0148716 -0.00013297 0
0.0158881 0.000626505 0
0.0157643 0.00056863 0
0.0152913 0.00027968 0
0.015221 0.000174592 0
0.015892 0.000586302 0
0.0155896 0.000437482 0
0.0153427 0.000263896 0
0.0157725 0.000525649 0
0.0155264 0.00039155 0
0.0138314 -0.00112157 0
0.015254 0.00016554 0
0.0156857 0.000464496 0
0.0147415 -0.000477281 0
0.0160119 0.000589587 0
0.01454 -0.000711627 0
0.0154783 0.000313267 0
0.015393 0.000247167 0
0.0160124 0.000579997 0
0.0153022 0.000151365 0
0.0158991 0.000527199 0
0.016013 0.00057037 0
0.0157849 0.00046511 0
0.0160138 0.00055631 0
0.0149683 -0.000261019 0
0.0156182 0.00035086 0
0.0160148 0.000542137 0
0.0154614 0.000222232 0
0.0153705 0.000129248 0
0.0160164 0.000521552 0
0.0157985 0.000403222 0
0.0160182 0.000500717 0
0.0153066 2.49878e-05 0
0.0159118 0.000441186 0
0.0153221 2.00449e-05 0
0.0155274 0.000195707 0
0.0153375 1.50164e-05 0
0.016021 0.000470729 0
0.0153599 7.45373e-06 0
0.0154645 9.47786e-05 0
0.0157333 0.000292552 0
0.0156573 0.000233966 0
0.0160242 0.000440269 0
0.0153821 -3.0194e-07 0
0.0158184 0.000317837 0
0.0161537 0.000478212 0
0.0150583 -0.000392635 0
0.0154139 -1.18845e-05 0
0.0156142 0.000156856 0
0.0161546 0.000457716 0
0.015209 -0.000246565 0
0.0160292 0.000396959 0
0.0146466 -0.000872536 0
0.0154454 -2.3852e-05 0
0.0142921 -0.00109124 0
0.0159331 0.00031782 0
0.0161563 0.000427956 0
0.0160347 0.000352846 0
0.0158394 0.000230727 0
0.0154894 -4.15563e-05 0
0.0155892 4.13045e-05 0
0.0156967 0.000115523 0
0.0161591 0.000384741 0
0.0154069 -0.000168417 0
0.0155326 -5.99882e-05 0
0.0149142 -0.000735037 0
0.0160431 0.000291046 0
0.0154349 -0.000179285 0
0.0139689 -0.00134081 0
0.016164 0.000322256 0
0.0155916 -8.69795e-05 0
0.0154756 -0.000195891 0
0.0162728 0.000361914 0
0.0151572 -0.00055635 0
0.0158684 0.000113007 0
0.0158011 5.6235e-05 0
0.0160522 0.000228028 0
0.0162732 0.000350971 0
0.0162737 0.000340026 0
0.0159666 0.000144175 0
0.0162744 0.000324353 0
0.0155335 -0.000221129 0
0.0156487 -0.000115265 0
0.0157473 -4.08137e-05 0
0.0162752 0.000308627 0
0.0161724 0.000232605 0
0.0147462 -0.00104129 0
0 0 0
0.0162763 0.000286127 0
0.0160656 0.000141255 0
0.0162776 0.000263476 0
0.015898 -6.64943e-06 0
0.0154977 -0.000364998 0
0.00904878 -0.00146187 0
0.0157244 -0.000156171 0
0.0156134 -0.000259356 0
0.0155106 -0.00037082 0
0.0162796 0.000231271 0
0.0155235 -0.00037671 0
0.0155423 -0.000385513 0
0.0162817 0.000198746 0
0.0160799 5.28211e-05 0
0.0155609 -0.00039446 0
0.0152466 -0.00072317 0
0.0161864 0.000105434 0
0.0157967 -0.000199229 0
0.0155877 -0.000407685 0
0.016285 0.000152954 0
0.01572 -0.000317038 0
0.0156141 -0.000421202 0
0.0163953 0.000206444 0
0.0154127 -0.000642712 0
0.0160153 -9.48009e-05 0
0.0159368 -0.000164861 0
0.0162886 0.000106578 0
0.0163962 0.000182659 0
0.0156513 -0.000440962 0
0.0160999 -6.65558e-05 0
0.0150737 -0.00103096 0
0.0163975 0.000149032 0
0.0158889 -0.000260528 0
0.0148345 -0.00121443 0
0.0156877 -0.000461291 0
0.0162939 4.21131e-05 0
0.0140903 -0.00156574 0
0.0163995 0.000101266 0
0.0155991 -0.000614028 0
0.0162082 -7.22033e-05 0
0.0157376 -0.000490687 0
0.0162997 -2.32983e-05 0
0.0156224 -0.000626567 0
0.0158564 -0.00040357 0
0.0161204 -0.000187925 0
0.0119516 -0.00181371 0
0.0153423 -0.000928271 0
0.0159749 -0.000325169 0
0.0164029 3.34971e-05 0
0.0156562 -0.000645493 0
0.0157861 -0.000521134 0
0.0163081 -0.000112832 0
0.0157044 -0.000673824 0
0.0164894 4.30132e-05 0
0.0145149 -0.00152611 0
0.0164898 3.00728e-05 0
0.0158504 -0.000564657 0
0.0164083 -6.21035e-05 0
0.0164902 1.71667e-05 0
0.0164908 -8.2504e-07 0
0.0149151 -0.00139638 0
0.0161474 -0.000348273 0
0.0164914 -1.88146e-05 0
0.0160797 -0.00041549 0
0.0163169 -0.000203729 0
0.0157711 -0.000715965 0
0.0164922 -4.40324e-05 0
0.0159121 -0.00061001 0
0.0162401 -0.000315506 0
0.0164931 -6.93107e-05 0
0.0160215 -0.00053211 0
0.0156872 -0.000865558 0
0.0156979 -0.000872185 0
0.0164945 -0.000104685 0
0.0164167 -0.000195706 0
0.0154255 -0.00113592 0
0.0157085 -0.000878864 0
0.015724 -0.000888806 0
0.0164959 -0.000140232 0
0.0163292 -0.000325925 0
0.0158602 -0.000778309 0
0.0157393 -0.00089886 0
0.015991 -0.000673999 0
0.0161741 -0.000510688 0
0.0157614 -0.000913633 0
0.0152157 -0.0013706 0
0.0164979 -0.00018964 0
0.0141896 -0.00179539 0
0.0157832 -0.000928637 0
0.0165001 -0.000239404 0
0.0158138 -0.00095041 0
0.0156037 -0.00114447 0
0.00502908 -0.000953165 0
0.0163418 -0.000449841 0
0.0149839 -0.00158117 0
0.0160649 -0.000740976 0
0.0165706 -0.000172276 0
0.0164294 -0.000379999 0
0.0158439 -0.000972637 0
0.0165032 -0.00030785 0
0.0159747 -0.000870034 0
0.0165713 -0.000200885 0
0.00912361 -0.00159052 0
0.015885 -0.00100451 0
0.0165724 -0.000239987 0
0.0162821 -0.00064099 0
0.0165064 -0.000376916 0
0.0162068 -0.000720288 0
0.0165739 -0.000294041 0
0.0155098 -0.0013878 0
0.015925 -0.00103724 0
0.0157783 -0.0011762 0
0.0163582 -0.000613063 0
0.0161553 -0.000834023 0
0.0157973 -0.00119026 0
0.0165109 -0.000470636 0
0.016576 -0.000369024 0
0.0158249 -0.00121134 0
0.0159781 -0.00108362 0
0.0164473 -0.000629945 0
0.0161137 -0.00100402 0
0.0158641 -0.0012426 0
0.0150443 -0.001776 0
0.0165156 -0.000565297 0
0.0160291 -0.00113154 0
0.0163741 -0.000778113 0
0.0165791 -0.00047277 0
0.016237 -0.000931653 0
0.0142705 -0.00203 0
0.0166163 -0.000399445 0
0.0159183 -0.00128857 0
0.0166167 -0.000415302 0
0.016617 -0.000431095 0
0.0166175 -0.000452336 0
0.0165217 -0.00069168 0
0.0146696 -0.00198109 0
0.0153334 -0.00176043 0
0.0160944 -0.0011986 0
0.0166179 -0.000473528 0
0.0155776 -0.00164147 0
0.0165835 -0.000615289 0
0.0166186 -0.000502423 0
0.0159907 -0.00135563 0
0.0166192 -0.000531302 0
0.0158507 -0.00148818 0
0.0158593 -0.00149554 0
0.0158678 -0.00150294 0
0.0163932 -0.000990692 0
0.0163305 -0.00106488 0
0.01662 -0.000570856 0
0.0165277 -0.000819294 0
0.0161556 -0.00126827 0
0.0158803 -0.00151392 0
0.0158927 -0.001525 0
0.0166208 -0.000610457 0
0.0150927 -0.00197247 0
0.0162703 -0.00119775 0
0.0164695 -0.000961891 0
0.0159104 -0.00154121 0
0.0166219 -0.000664577 0
0.0159279 -0.0015576 0
0.0165891 -0.000808912 0
0.0160836 -0.00145283 0
0.0159525 -0.00158128 0
0.016623 -0.000718848 0
0.0162303 -0.00136443 0
0.0157563 -0.00176172 0
0.0165351 -0.000986499 0
0.0159765 -0.00160533 0
0 0 0
0.0164101 -0.00120477 0
0.0166244 -0.000792481 0
0.0160095 -0.00163961 0
0.014329 -0.00226805 0
0.0166278 -0.000693581 0
0.0120659 -0.00221491 0
0.0166256 -0.000866418 0
0.0156387 -0.0019443 0
0.0160414 -0.00167459 0
0.0166285 -0.00072929 0
0.0162977 -0.00146475 0
0.00916407 -0.00173011 0
0.0165416 -0.00115503 0
0.0166293 -0.000776114 0
0.0151315 -0.00218052 0
0.0161962 -0.00159273 0
0.0165957 -0.00106809 0
0.0160838 -0.00172382 0
0.0166272 -0.000965621 0
0.0159144 -0.00186359 0
0.0166303 -0.000838679 0
0.0159295 -0.00187901 0
0.0159514 -0.00190202 0
0.0161244 -0.00177435 0
0.0164274 -0.0014739 0
0.0166285 -0.00106531 0
0.016492 -0.00139195 0
0.0166315 -0.000923095 0
0.0154166 -0.0022073 0
0.0159824 -0.00193595 0
0.0163747 -0.00160104 0
0.0165484 -0.00137122 0
0.0161762 -0.00184456 0
0.0166328 -0.00103723 0
0.0166298 -0.00119717 0
0.0160252 -0.00198544 0
0.0163223 -0.00179239 0
0.0151583 -0.00238948 0
0.0147555 -0.00245072 0
0.0156787 -0.00224779 0
0.0166012 -0.00140858 0
0.0162246 -0.00191702 0
0.0143684 -0.00250962 0
0.0165963 -0.00100473 0
0.0160822 -0.00205694 0
0.0166305 -0.00132967 0
0.0165966 -0.00102489 0
0.0166338 -0.00119095 0
0.0164396 -0.00174358 0
0.0165969 -0.00104495 0
0.0165529 -0.00158839 0
0.0165973 -0.00107078 0
0.0165976 -0.00109651 0
0.016598 -0.00113036 0
0.015953 -0.00223842 0
0.0162834 -0.00201637 0
0.0159597 -0.00224642 0
0.0159663 -0.00225444 0
0.0165983 -0.00116412 0
0.0159761 -0.00226634 0
0.0161547 -0.00215938 0
0.0166305 -0.00150195 0
0.0159858 -0.00227831 0
0.0165987 -0.00120906 0
0.0159996 -0.00229578 0
0.0166339 -0.00139619 0
0.016599 -0.00125394 0
0.0160132 -0.00231341 0
0.0160324 -0.00233877 0
0.0151738 -0.00261175 0
0.016336 -0.0021194 0
0.0165993 -0.0013139 0
0.0165052 -0.00193375 0
0.0165549 -0.0018606 0
0.016051 -0.00236444 0
0.0166292 -0.00167484 0
0.0165994 -0.00137384 0
0.0164466 -0.00207409 0
0.015836 -0.00249893 0
0.0160765 -0.00240087 0
0.0166009 -0.0018459 0
0.0162417 -0.00230499 0
0.0165994 -0.0014537 0
0.0157014 -0.00260337 0
0.0161012 -0.00243788 0
0.014386 -0.00275333 0
0.0166315 -0.00166669 0
0.00917311 -0.00186687 0
0.0165991 -0.00153359 0
0.0163953 -0.00225859 0
0.0154516 -0.00271731 0
0.0161337 -0.0024897 0
0.0166256 -0.00189526 0
0.0165054 -0.00140001 0
0.0165522 -0.0021328 0
0.0165982 -0.00163922 0
0.016506 -0.00144615 0
0.0161647 -0.00254259 0
0.0151768 -0.00283432 0
0.0165066 -0.00150386 0
0.0159678 -0.0026776 0
0.0159795 -0.00269414 0
0.0165969 -0.0017449 0
0.0164443 -0.00240346 0
0.0163375 -0.00251022 0
0.0165071 -0.00157786 0
0.0159964 -0.00271876 0
0.0162039 -0.00261566 0
0.0166195 -0.00211588 0
0.0160203 -0.00275492 0
0.0147748 -0.00293062 0
0.0166236 -0.00201725 0
0.0165074 -0.00167434 0
0.0165943 -0.00188301 0
0.0162403 -0.00269062 0
0.016053 -0.00280736 0
0.0120724 -0.00263487 0
0.0165418 -0.00246559 0
0.0156978 -0.0029579 0
0.0165071 -0.00180112 0
0.0165856 -0.0023931 0
0.0143849 -0.00299922 0
0.0165909 -0.00202114 0
0.0164919 -0.00259591 0
0.0160962 -0.00288259 0
0.0162839 -0.00279279 0
0.0151664 -0.00307195 0
0.016608 -0.00239103 0
0.0165054 -0.00196785 0
0 0 0
0.016585 -0.00219893 0
0.0164283 -0.00279657 0
0.0163649 -0.00181835 0
0.0161506 -0.00298942 0
0.0163223 -0.00289811 0
0.0163652 -0.00184476 0
0.0163655 -0.00187107 0
0.00503313 -0.00107933 0
0.0159506 -0.0031131 0
0.0163657 -0.0019033 0
0.0166045 -0.0024623 0
0.0159557 -0.0031216 0
0.0159608 -0.00313012 0
0.0163659 -0.00193542 0
0.0165232 -0.00279656 0
0.0159683 -0.00314274 0
0.016501 -0.00218596 0
0.0165776 -0.00237654 0
0.016366 -0.00197584 0
0.0159756 -0.00315541 0
0.016592 -0.00266534 0
0.0159862 -0.00317388 0
0.016366 -0.00201614 0
0.0159965 -0.00319247 0
0.0163643 -0.00303958 0
0.016366 -0.00206784 0
0.0162146 -0.00313971 0
0.016011 -0.00321917 0
0.015421 -0.00329447 0
0.0091454 -0.00201743 0
0.0163658 -0.00211941 0
0.0151429 -0.00330925 0
0.0160251 -0.00324611 0
0.0143633 -0.00324609 0
0.0163653 -0.00218626 0
0.0160442 -0.00328424 0
0.0165658 -0.00260108 0
0.0156647 -0.0033644 0
0.0158019 -0.00335217 0
0.0163646 -0.00225297 0
0.0160626 -0.00332283 0
0.0164916 -0.00246833 0
0.0163975 -0.00318601 0
0.0163633 -0.00233973 0
0.0165398 -0.00305806 0
0.0160867 -0.00337665 0
0.0165659 -0.00299933 0
0.0147304 -0.00341772 0
0.0162826 -0.00334919 0
0.0164892 -0.00319072 0
0.0163616 -0.00242629 0
0.0161094 -0.00343134 0
0.0165512 -0.00282485 0
0.0165652 -0.0030137 0
0.0163587 -0.00253855 0
0.0161378 -0.00350655 0
0.016427 -0.00337956 0
0.0151033 -0.0035631 0
0.0161393 -0.00233821 0
0.0164733 -0.00282855 0
0.0158936 -0.0036092 0
0.0163552 -0.0026505 0
0.0161398 -0.00239925 0
0.0159025 -0.00362656 0
0.0161637 -0.00358331 0
0.0159154 -0.00365235 0
0.0143241 -0.00349397 0
0.0161402 -0.00247194 0
0.016529 -0.00310198 0
0.0165323 -0.00333062 0
0.0159334 -0.00369012 0
0.0163497 -0.00279451 0
0.0161402 -0.00256093 0
0.0161941 -0.00368738 0
0.0163419 -0.00363818 0
0.0159579 -0.00374467 0
0.0156004 -0.00376719 0
0.0164423 -0.00358039 0
0.0161396 -0.00267228 0
0.016343 -0.00293801 0
0.0159899 -0.00382251 0
0.0162199 -0.00379407 0
0.0165024 -0.00337721 0
0.0161377 -0.00281359 0
0.01505 -0.00381584 0
0.0164401 -0.0032795 0
0.0163329 -0.00312033 0
0.0160295 -0.00393228 0
0.00908503 -0.00215821 0
0.0119701 -0.00306855 0
0.0164817 -0.00372377 0
0.0162467 -0.00393659 0
0.0153051 -0.00393897 0
0.0161337 -0.00299406 0
0.0164917 -0.00367823 0
0.0164417 -0.00384097 0
0.0142663 -0.00374137 0
0.0163209 -0.00330173 0
0.0160746 -0.00408541 0
0.0164637 -0.00371036 0
0.0157986 -0.0040969 0
0.015861 -0.00288671 0
0.0158025 -0.00410574 0
0.0158064 -0.00411459 0
0.0162659 -0.00408329 0
0.014625 -0.00390913 0
0.0158612 -0.00292185 0
0.0163702 -0.00403182 0
0.015812 -0.00412768 0
0.0161257 -0.00322441 0
0.0158176 -0.00414082 0
0.0158614 -0.00295691 0
0.0158255 -0.00415995 0
0.0158615 -0.00299774 0
0.0158334 -0.00417917 0
0.0163032 -0.00352858 0
0.0158615 -0.00303846 0
0.0158442 -0.00420672 0
0.0158613 -0.0030873 0
0.0158548 -0.00423447 0
0.0149774 -0.00408611 0
0.015861 -0.00313601 0
0.0154944 -0.00421766 0
0.0164199 -0.00411143 0
0.015869 -0.00427363 0
0.0163829 -0.00383147 0
0.0158604 -0.00319581 0
0.0161197 -0.00429678 0
0.0158825 -0.00431317 0
0.0162792 -0.00427615 0
0.0161111 -0.00351648 0
0.0158597 -0.00325545 0
0.0162825 -0.00375376 0
0.016418 -0.00403969 0
0.0156132 -0.00430571 0
0 0 0
0.0159001 -0.00436815 0
0.0158584 -0.00332991 0
0.0141918 -0.00398867 0
0.0159165 -0.00442382 0
0.0158569 -0.00340414 0
0.0158545 -0.00349774 0
0.0159366 -0.00450008 0
0.0162803 -0.00447522 0
0.016253 -0.00403012 0
0.0158515 -0.00359098 0
0.0160857 -0.00388242 0
0.0159545 -0.00457759 0
0.0161532 -0.00458533 0
0.0163651 -0.004455 0
0.0148907 -0.00435415 0
0.0158471 -0.00370887 0
0.0163542 -0.00442857 0
0.0163326 -0.00455914 0
0.00898519 -0.00231457 0
0.0159747 -0.00468218 0
0.0156499 -0.00463568 0
0.0158419 -0.00382622 0
0.0156568 -0.00465351 0
0.016219 -0.0043035 0
0.0156667 -0.00467995 0
0.0154763 -0.00355055 0
0.0162644 -0.00473224 0
0.0162889 -0.00448969 0
0.0156805 -0.00471858 0
0.015991 -0.00478889 0
0.0158341 -0.0039741 0
0.0154767 -0.00363169 0
0.0153541 -0.00466026 0
0.0141013 -0.00423391 0
0.0156992 -0.00477422 0
0.0154768 -0.00372388 0
0.0144615 -0.00440187 0
0.0160431 -0.00433346 0
0.0150837 -0.00464508 0