# vtk DataFile Version 3.0
File generated from DClib
ASCII

DATASET UNSTRUCTURED_GRID
POINTS 1909 float
50 0 0 
48.75 0 0 
50 1.66667 0 
47.5 0 0 
50 3.33333 0 
46.25 0 0 
50 5 0 
45 0 0 
43.75 0 0 
50 6.66667 0 
43 2 0 
42.5 0 0 
50 8.33333 0 
43 4.66667 0 
41.25 0 0 
41.075 2 0 
50 10 0 
40 0 0 
43 7.33333 0 
39.15 2 0 
38.75 0 0 
43 10 0 
37.5 0 0 
37.225 2 0 
36.25 0 0 
36 4 0 
35.3 2 0 
36 5 0 
35 0 0 
35.325 4 0 
36 6 0 
36 7 0 
34.65 4 0 
36 8 0 
33.75 0 0 
33.975 4 0 
36 9 0 
33.375 2 0 
33.3 4 0 
36 10 0 
32.5 0 0 
32.625 4 0 
33 6 0 
31.95 4 0 
33 7.45455 0 
31.45 2 0 
31.25 0 0 
31.95 6 0 
33 8.79545 0 
31.275 4 0 
33 10 0 
30.6 4 0 
30 0 0 
30.9 6 0 
29.925 4 0 
29.525 2 0 
29.85 6 0 
29.25 4 0 
28.75 0 0 
30 8 0 
30 8.45455 0 
28.575 4 0 
29.625 8 0 
30 8.90909 0 
28.8 6 0 
30 9.25 0 
29.782 8.90909 0 
30 9.59091 0 
29.9487 9.59091 0 
29.25 8 0 
29.7462 9.25 0 
30 9.79545 0 
29.897 9.59091 0 
29.564 8.90909 0 
29.9547 9.79545 0 
29.3462 8.45455 0 
29.84 9.59091 0 
30 10 0 
29.8975 9.79545 0 
29.9882 10 0 
29.9902 10.0098 0 
29.7827 9.59091 0 
29.9765 10 0 
29.9804 10.0196 0 
29.9667 10.0098 0 
29.9591 10 0 
29.9686 10.0196 0 
29.9659 10.0341 0 
29.9569 10.0196 0 
29.9418 10 0 
29.9395 10.0196 0 
29.9515 10.0485 0 
29.932 10.0098 0 
29.9424 10.0341 0 
29.8241 9.79545 0 
29.7181 9.59091 0 
29.9166 10 0 
29.9397 10.0485 0 
29.9222 10.0196 0 
29.9279 10.0485 0 
29.9305 10.0695 0 
29.8914 10 0 
29.9077 10.0341 0 
27.9 4 0 
29.897 10.0196 0 
29.9106 10.0485 0 
29.8817 10.0098 0 
29.907 10.0695 0 
29.8933 10.0485 0 
29.9095 10.0905 0 
29.8719 10.0196 0 
27.6 2 0 
29.8556 10 0 
29.8978 10.0905 0 
29.6531 9.59091 0 
29.3437 8.90909 0 
27.5 0 0 
29.8681 10.0485 0 
29.886 10.0905 0 
29.8574 10.0341 0 
29.4839 9.25 0 
29.8723 10.0695 0 
29.7289 9.79545 0 
29.836 10.0196 0 
29.8687 10.0905 0 
29.8197 10 0 
29.8797 10.1203 0 
29.843 10.0485 0 
29.8513 10.0905 0 
29.81 10.0098 0 
29.8561 10.1203 0 
29.8002 10.0196 0 
29.8221 10.0695 0 
29.8072 10.0485 0 
29.8262 10.0905 0 
29.5782 9.59091 0 
29.8498 10.1502 0 
29.7695 10 0 
29.7858 10.0341 0 
29.838 10.1502 0 
29.8215 10.1203 0 
29.8011 10.0905 0 
29.8262 10.1502 0 
29.7714 10.0485 0 
28.875 8 0 
29.75 10.0196 0 
29.8089 10.1502 0 
29.7654 10.0905 0 
29.7193 10 0 
29.7916 10.1502 0 
29.7505 10.0695 0 
29.8079 10.1921 0 
29.7713 10.1203 0 
29.7096 10.0098 0 
29.6047 9.79545 0 
29.503 9.59091 0 
29.7213 10.0485 0 
29.7665 10.1502 0 
29.6999 10.0196 0 
29.7844 10.1921 0 
29.7296 10.0905 0 
29.6856 10.0341 0 
29.7414 10.1502 0 
29.7497 10.1921 0 
29.6503 10 0 
29.7661 10.2339 0 
29.6712 10.0485 0 
29.6999 10.1203 0 
29.7543 10.2339 0 
29.6796 10.0905 0 
29.7057 10.1502 0 
29.7425 10.2339 0 
29.1235 8.90909 0 
29.6309 10.0196 0 
29.6504 10.0695 0 
29.4146 9.59091 0 
29.7252 10.2339 0 
29.6996 10.1921 0 
29.6701 10.1502 0 
29.7079 10.2339 0 
29.6296 10.0905 0 
29.5813 10 0 
29.6023 10.0485 0 
29.5716 10.0098 0 
29.6828 10.2339 0 
29.7086 10.2914 0 
29.2101 9.25 0 
29.562 10.0196 0 
29.6201 10.1502 0 
29.6578 10.2339 0 
29.4428 9.79545 0 
29.5999 10.1203 0 
29.6849 10.2914 0 
29.6283 10.1921 0 
29.5477 10.0341 0 
29.3259 9.59091 0 
29.5608 10.0905 0 
29.5335 10.0485 0 
29.6221 10.2339 0 
29.6503 10.2914 0 
29.5702 10.1502 0 
29.4881 10 0 
29.5128 10.0695 0 
29.6511 10.3489 0 
29.5866 10.2339 0 
29.6392 10.3489 0 
29.4689 10.0196 0 
29.6002 10.2914 0 
29.6273 10.3489 0 
29.4921 10.0905 0 
29.61 10.3489 0 
29.5286 10.1921 0 
29.5016 10.1502 0 
29.5368 10.2339 0 
29.5926 10.3489 0 
29.4405 10.0485 0 
29.2199 9.59091 0 
29.4626 10.1203 0 
29.3949 10 0 
28.9 8.90909 0 
29.5676 10.3489 0 
29.5291 10.2914 0 
29.3853 10.0098 0 
28.6923 8.45455 0 
29.487 10.2339 0 
29.5426 10.3489 0 
29.3758 10.0196 0 
29.5734 10.4266 0 
29.4331 10.1502 0 
29.3993 10.0905 0 
28.5 8 0 
29.3617 10.0341 0 
29.5496 10.4266 0 
29.5071 10.3489 0 
29.2327 9.79545 0 
29.3475 10.0485 0 
29.1136 9.59091 0 
29.4187 10.2339 0 
29.5148 10.4266 0 
29.4716 10.3489 0 
29.3918 10.1921 0 
29.3271 10.0695 0 
29.4298 10.2914 0 
29.2714 10 0 
29.3406 10.1502 0 
28.9208 9.25 0 
29.3066 10.0905 0 
29.4648 10.4266 0 
29.422 10.3489 0 
29.4958 10.5042 0 
29.2524 10.0196 0 
27.75 6 0 
29.3504 10.2339 0 
29.4837 10.5042 0 
29.4718 10.5042 0 
29.2774 10.1203 0 
29.4543 10.5042 0 
29.3724 10.3489 0 
29.2244 10.0485 0 
29.4369 10.5042 0 
29.3938 10.4266 0 
28.9853 9.59091 0 
29.2481 10.1502 0 
28.6766 8.90909 0 
29.4119 10.5042 0 
29.2934 10.2914 0 
27.225 4 0 
29.148 10 0 
29.2582 10.2339 0 
29.1837 10.0905 0 
29.3869 10.5042 0 
29.1385 10.0098 0 
29.3044 10.3489 0 
29.1291 10.0196 0 
29.2072 10.1921 0 
29.3514 10.5042 0 
29.1152 10.0341 0 
29.3929 10.6071 0 
29.2949 10.4266 0 
29.1013 10.0485 0 
29.3686 10.6071 0 
29.316 10.5042 0 
29.2364 10.3489 0 
28.9623 9.79545 0 
29.1257 10.1502 0 
29.1662 10.2339 0 
29.0811 10.0695 0 
28.8566 9.59091 0 
29.3336 10.6071 0 
29.2666 10.5042 0 
29.0609 10.0905 0 
28.9875 10 0 
29.2835 10.6071 0 
29.1448 10.3489 0 
29.0321 10.1203 0 
29.2173 10.5042 0 
29.1098 10.2914 0 
28.125 8 0 
28.9688 10.0196 0 
29.1594 10.4266 0 
28.611 9.25 0 
29.29 10.71 0 
28.4486 8.90909 0 
29.0443 10.2339 0 
29.0033 10.1502 0 
29.2777 10.71 0 
28.9413 10.0485 0 
29.2128 10.6071 0 
29.2655 10.71 0 
29.1497 10.5042 0 
29.2478 10.71 0 
28.7003 9.59091 0 
29.0533 10.3489 0 
29.2303 10.71 0 
28.9629 10.1921 0 
28.9013 10.0905 0 
29.2051 10.71 0 
29.0822 10.5042 0 
29.1801 10.71 0 
28.827 10 0 
29.1144 10.6071 0 
28.8177 10.0098 0 
28.9225 10.2339 0 
28.8085 10.0196 0 
29.1447 10.71 0 
28.7949 10.0341 0 
28.8443 10.1502 0 
28.977 10.4266 0 
28.9322 10.3489 0 
29.1094 10.71 0 
28.7813 10.0485 0 
28.9912 10.5042 0 
29.1562 10.8438 0 
28.5436 9.59091 0 
28.7615 10.0695 0 
28.8669 10.2914 0 
29.1313 10.8438 0 
28.6184 9.79545 0 
29.0602 10.71 0 
28.2207 8.90909 0 
28.7418 10.0905 0 
28.0378 8.45455 0 
28.9798 10.6071 0 
29.0958 10.8438 0 
29.0112 10.71 0 
28.9005 10.5042 0 
28.7136 10.1203 0 
28.7644 10.2339 0 
28.8113 10.3489 0 
29.0454 10.8438 0 
28.6223 10 0 
28.6854 10.1502 0 
28.2746 9.25 0 
28.9441 10.71 0 
28.6042 10.0196 0 
27.75 8 0 
28.9747 10.8438 0 
28.6459 10.1921 0 
28.5773 10.0485 0 
29.0225 10.9775 0 
28.3532 9.59091 0 
28.7804 10.5042 0 
28.736 10.4266 0 
28.8772 10.71 0 
29.0097 10.9775 0 
28.9971 10.9775 0 
28.799 10.6071 0 
28.9791 10.9775 0 
28.5384 10.0905 0 
28.6064 10.2339 0 
28.6543 10.3489 0 
28.9611 10.9775 0 
28.8769 10.8438 0 
27.9867 8.90909 0 
26.25 0 0 
28.9358 10.9775 0 
28.7871 10.71 0 
28.9106 10.9775 0 
28.6607 10.5042 0 
28.4177 10 0 
26.55 4 0 
28.552 10.2914 0 
28.483 10.1502 0 
28.4087 10.0098 0 
28.8751 10.9775 0 
28.3998 10.0196 0 
28.3866 10.0341 0 
28.8399 10.9775 0 
28.6974 10.71 0 
28.3735 10.0485 0 
28.1625 9.59091 0 
28.7436 10.8438 0 
28.4976 10.3489 0 
28.3543 10.0695 0 
28.791 10.9775 0 
28.4052 10.2339 0 
28.3352 10.0905 0 
28.8519 11.1481 0 
28.1869 9.79545 0 
28.5607 10.6071 0 
28.5053 10.5042 0 
28.7423 10.9775 0 
28.8258 11.1481 0 
28.308 10.1203 0 
28.5787 10.71 0 
27.904 9.25 0 
28.7893 11.1481 0 
28.424 10.4266 0 
27.7528 8.90909 0 
28.2807 10.1502 0 
28.6758 10.9775 0 
27.375 8 0 
28.7383 11.1481 0 
28.1619 10 0 
28.5649 10.8438 0 
28.2425 10.1921 0 
28.6096 10.9775 0 
28.1444 10.0196 0 
28.298 10.3489 0 
28.4605 10.71 0 
26.7 6 0 
27.9315 9.59091 0 
28.3503 10.5042 0 
28.6676 11.1481 0 
28.1187 10.0485 0 
28.2042 10.2339 0 
28.5207 10.9775 0 
28.0813 10.0905 0 
28.6814 11.3186 0 
27.3818 8.45455 0 
28.6679 11.3186 0 
28.1516 10.2914 0 
28.5703 11.1481 0 
28.6544 11.3186 0 
28.6358 11.3186 0 
27.5109 8.90909 0 
28.3072 10.71 0 
28.6173 11.3186 0 
28.2524 10.6071 0 
28.4322 10.9775 0 
28.028 10.1502 0 
28.5915 11.3186 0 
28.0989 10.3489 0 
28.33 10.8438 0 
28.5658 11.3186 0 
28.153 10.5042 0 
27.9061 10 0 
27.8975 10.0098 0 
28.5303 11.3186 0 
28.4384 11.1481 0 
27.7002 9.59091 0 
27.889 10.0196 0 
27.8765 10.0341 0 
28.4949 11.3186 0 
28.3154 10.9775 0 
27.9532 10.2339 0 
27.8639 10.0485 0 
28.0276 10.4266 0 
28.1544 10.71 0 
27.8457 10.0695 0 
27.4909 9.25 0 
28.4463 11.3186 0 
27 8 0 
27.8275 10.0905 0 
28.3979 11.3186 0 
27.8015 10.1203 0 
27.6542 9.79545 0 
25.675 2 0 
28.1991 10.9775 0 
27.2691 8.90909 0 
27.9563 10.5042 0 
28.4682 11.5318 0 
28.2625 11.1481 0 
27.7755 10.1502 0 
28.3322 11.3186 0 
27.8502 10.3489 0 
28.4401 11.5318 0 
25.875 4 0 
27.7391 10.1921 0 
28.4019 11.5318 0 
28.0268 10.8438 0 
28.2668 11.3186 0 
27.9602 10.71 0 
28.3498 11.5318 0 
27.4223 9.59091 0 
27.7026 10.2339 0 
27.5927 10 0 
28.0486 10.9775 0 
27.8616 10.6071 0 
27.5762 10.0196 0 
28.1794 11.3186 0 
28.2786 11.5318 0 
27.5519 10.0485 0 
27.6524 10.2914 0 
28.0319 11.1481 0 
27.7108 10.5042 0 
27.5167 10.0905 0 
27.0169 8.90909 0 
28.0924 11.3186 0 
27.6021 10.3489 0 
27.8988 10.9775 0 
28.1818 11.5318 0 
27.7667 10.71 0 
26.625 8 0 
28.255 11.745 0 
27.4664 10.1502 0 
28.2402 11.745 0 
28.2256 11.745 0 
28.2059 11.745 0 
27.978 11.3186 0 
26.7234 8.45455 0 
27.0259 9.25 0 
27.5342 10.4266 0 
28.1863 11.745 0 
27.1442 9.59091 0 
28.0516 11.5318 0 
28.1598 11.745 0 
27.3959 10.2339 0 
28.1334 11.745 0 
27.2793 10 0 
27.2714 10.0098 0 
27.2635 10.0196 0 
27.7086 10.9775 0 
27.6431 10.8438 0 
28.0975 11.745 0 
27.8643 11.3186 0 
27.4661 10.5042 0 
27.2518 10.0341 0 
27.2401 10.0485 0 
28.0617 11.745 0 
26.7648 8.90909 0 
27.5255 10.71 0 
27.7353 11.1481 0 
27.2231 10.0695 0 
28.0133 11.745 0 
27.2061 10.0905 0 
27.8791 11.5318 0 
27.2986 10.3489 0 
27.1818 10.1203 0 
27.9651 11.745 0 
27.3758 10.6071 0 
27.0077 9.79545 0 
27.7174 11.3186 0 
27.1576 10.1502 0 
25 0 0 
27.5193 10.9775 0 
27.9003 11.745 0 
27.1236 10.1921 0 
26.25 8 0 
27.9939 12.0061 0 
25.65 6 0 
27.8359 11.745 0 
26.8136 9.59091 0 
27.0896 10.2339 0 
27.9626 12.0061 0 
27.2853 10.71 0 
25.2 4 0 
27.5713 11.3186 0 
27.9218 12.0061 0 
26.4998 8.90909 0 
27.167 10.5042 0 
27.6541 11.5318 0 
27.0427 10.2914 0 
27.7503 11.745 0 
26.9033 10 0 
27.8677 12.0061 0 
26.8882 10.0196 0 
26.8659 10.0485 0 
26.9958 10.3489 0 
27.2836 10.9775 0 
27.6652 11.745 0 
27.3609 11.1481 0 
27.7955 12.0061 0 
26.499 9.25 0 
[...]
POINT_DATA 1909
SCALARS phi float 1
LOOKUP_TABLE default
VECTORS Displacement float
0 0 0
0 0 0
0 -0.00199909 0
0 0 0
0 -0.00276092 0
0 0 0
0 -0.00236585 0
0 0 0
0 0 0
0 -0.000919791 0
0.00582213 -0.00174502 0
0 0 0
0 0.00147956 0
0.0112345 -0.000978656 0
0 0 0
0.00787099 -0.00171671 0
0 0.00451309 0
0 0 0
0.0149713 0.00261286 0
0.010116 -0.00174831 0
0 0 0
0.016963 0.00838636 0
0 0 0
0.0125087 -0.00188301 0
0 0 0
0.0237224 -0.00119852 0
0.0149127 -0.00212139 0
0.0280696 0.000207677 0
0 0 0
0.0254395 -0.00132609 0
0.0312465 0.0021413 0
0.0333355 0.00452525 0
0.02712 -0.00148309 0
0.034526 0.00704134 0
0 0 0
0.0287871 -0.00173137 0
0.0354322 0.00970068 0
0.0171732 -0.00244773 0
0.030402 -0.00201471 0
0.0362046 0.0130592 0
0 0 0
0.0319297 -0.0023537 0
0.0409949 0.000978359 0
0.0333764 -0.00272637 0
0.0450382 0.00497522 0
0.0191485 -0.00284254 0
0 0 0
0.0443303 -0.000404189 0
0.0468721 0.0100827 0
0.0347086 -0.00313803 0
0.0466712 0.0198859 0
0.0359287 -0.00357898 0
0 0 0
0.0471179 -0.00183058 0
0.0370237 -0.0040479 0
0.0207237 -0.00328961 0
0.049456 -0.00336867 0
0.037985 -0.00454364 0
0 0 0
0.0579724 1.38953e-05 0
0.0596123 0.00120399 0
0.0388163 -0.00505709 0
0.0591265 -0.00101304 0
0.0611854 0.00262587 0
0.0513355 -0.00501156 0
0.0622591 0.00465491 0
0.0620999 0.00179958 0
0.0633054 0.00769206 0
0.0634985 0.00693013 0
0.060147 -0.0020674 0
0.0633904 0.00312016 0
0.0641152 0.0106873 0
0.063702 0.00629825 0
0.0629377 0.000983765 0
0.0644034 0.0100145 0
0.0617953 -0.000895134 0
0.063911 0.00566333 0
0.0648379 0.0152423 0
0.0647633 0.00918279 0
0.0649568 0.0151828 0
0.0815517 0.0244796 0
0.0641181 0.00509062 0
0.0650752 0.0150588 0
0.0944208 0.0306098 0
0.0800398 0.0232742 0
0.0652552 0.014897 0
0.0927393 0.029497 0
0.0958621 0.0300205 0
0.0910812 0.0283628 0
0.0654368 0.0147007 0
0.0887249 0.0269679 0
0.0958445 0.0293559 0
0.0781346 0.021715 0
0.094095 0.0285174 0
0.0652166 0.00822706 0
0.0643593 0.0045454 0
0.0656989 0.0143344 0
0.0956714 0.0289193 0
0.0867431 0.0257475 0
0.0954896 0.028543 0
0.0962717 0.0290265 0
0.0659549 0.0139581 0
0.0910798 0.0268107 0
0.0395015 -0.00559882 0
0.0844747 0.0241136 0
0.0949483 0.0280688 0
0.0763412 0.0197196 0
0.0959956 0.0283153 0
0.0940825 0.0274549 0
0.0962016 0.0285424 0
0.0826406 0.022713 0
0.0218101 -0.00377898 0
0.0662977 0.0132926 0
0.0961006 0.028198 0
0.0646014 0.00405076 0
0.0637168 0.000147338 0
0 0 0
0.0925928 0.0263387 0
0.0959813 0.0278454 0
0.0872583 0.0242049 0
0.0644445 0.00184757 0
0.0952654 0.02716 0
0.0657677 0.00716158 0
0.0806827 0.0208548 0
0.0957969 0.0272843 0
0.0666175 0.0126538 0
0.096177 0.0279289 0
0.0908841 0.0251377 0
0.0956059 0.0267164 0
0.0748148 0.0172087 0
0.0959869 0.0271884 0
0.0791545 0.0192841 0
0.0932462 0.0251799 0
0.0885392 0.0233152 0
0.0951876 0.0259017 0
0.0648981 0.00356158 0
0.0959655 0.0271995 0
0.0670216 0.0117121 0
0.0830963 0.0207091 0
0.0958743 0.0268195 0
0.0956731 0.0260651 0
0.0946067 0.0250328 0
0.0957817 0.0264356 0
0.0863658 0.0216444 0
0.061124 -0.00313098 0
0.077609 0.0173101 0
0.0956331 0.0258669 0
0.0934657 0.0237582 0
0.0673768 0.010825 0
0.0954746 0.0252978 0
0.089578 0.0221806 0
0.0956641 0.0261563 0
0.0950598 0.0243997 0
0.0736031 0.0142838 0
0.0663957 0.00596643 0
0.0651923 0.00310021 0
0.0838255 0.0193915 0
0.0952401 0.0244669 0
0.0764824 0.015668 0
0.0954902 0.0253794 0
0.0919736 0.0223997 0
0.0792943 0.0167373 0
0.095003 0.0236601 0
0.0952234 0.024245 0
0.0678133 0.00972411 0
0.0952801 0.0250654 0
0.081733 0.0174815 0
0.0934496 0.0219984 0
0.0951947 0.0246738 0
0.0897259 0.0204758 0
0.0945937 0.0225531 0
0.0951084 0.0242866 0
0.0644254 -0.000695344 0
0.0753804 0.0137272 0
0.0848411 0.0182274 0
0.0655519 0.00260452 0
0.0949816 0.0237252 0
0.0948219 0.0226755 0
0.0940997 0.0214803 0
0.0948558 0.0231769 0
0.0874532 0.0186675 0
0.0681812 0.00869392 0
0.0795365 0.0151406 0
0.0726333 0.0111521 0
0.0946711 0.0224067 0
0.0947364 0.023574 0
0.0654097 0.000568377 0
0.074582 0.0120808 0
0.0930929 0.0200545 0
0.0944846 0.0216655 0
0.0670685 0.00459748 0
0.0899656 0.0187455 0
0.0945829 0.0228231 0
0.0941922 0.0206149 0
0.0763447 0.0127434 0
0.0659065 0.00212404 0
0.084682 0.0163138 0
0.0779261 0.0132423 0
0.0942182 0.0206503 0
0.0943577 0.0217685 0
0.091719 0.0185983 0
0.0686197 0.00752912 0
0.080218 0.0138726 0
0.094148 0.0221156 0
0.0939519 0.0196961 0
0.094077 0.0217536 0
0.0737395 0.0102009 0
0.0940362 0.0203416 0
0.0940068 0.0214 0
0.0823252 0.0143169 0
0.0939048 0.0208937 0
0.0927464 0.0179686 0
0.0895256 0.0166678 0
0.093539 0.0184361 0
0.0938042 0.0204033 0
0.0763689 0.0110797 0
0.0663249 0.00157372 0
0.0849703 0.0146955 0
0.0689858 0.00643662 0
0.06508 -0.0015543 0
0.0936615 0.0197192 0
0.0935898 0.0185042 0
0.0717631 0.00794004 0
0.063563 -0.00302378 0
0.0930698 0.0172659 0
0.0935226 0.0190648 0
0.0730943 0.00855316 0
0.0933955 0.0202645 0
0.0871869 0.014839 0
0.0798691 0.0119133 0
0.061973 -0.00421748 0
0.0742496 0.00896711 0
0.0932707 0.0196017 0
0.0933275 0.0181805 0
0.0677754 0.00301762 0
0.0752658 0.00928137 0
0.0667341 0.00103422 0
0.0921023 0.0157789 0
0.0930937 0.0186836 0
0.0931362 0.0173467 0
0.0893134 0.0146523 0
0.0766908 0.00966734 0
0.0929542 0.0162562 0
0.0693873 0.00520622 0
0.0843037 0.0125167 0
0.0663072 -0.000746583 0
0.0780653 0.00997546 0
0.0928489 0.0174543 0
0.0928684 0.0162492 0
0.092626 0.018525 0
0.0723756 0.00669911 0
0.0527306 -0.00672891 0
0.0907378 0.0142926 0
0.0925716 0.0182157 0
0.0925182 0.0179142 0
0.0800078 0.010327 0
0.0924416 0.0174848 0
0.0925994 0.0152295 0
0.0742044 0.00729802 0
0.0923668 0.0170695 0
0.0925195 0.0158709 0
0.067204 0.000395814 0
0.0818394 0.0105477 0
0.0656682 -0.00241964 0
0.0922608 0.0164916 0
0.0915524 0.0135236 0
0.0400534 -0.0061476 0
0.0697283 0.00404545 0
0.0885074 0.0123965 0
0.0763818 0.00778639 0
0.0921579 0.0159377 0
0.071036 0.00471023 0
0.0921938 0.0139142 0
0.0718648 0.00506629 0
0.0841341 0.0106647 0
0.0920153 0.0151863 0
0.0726967 0.00535135 0
0.091722 0.0164382 0
0.0920831 0.0139114 0
0.0734095 0.00555778 0
0.0916255 0.0158811 0
0.091878 0.0144735 0
0.091723 0.012706 0
0.0685466 0.00120642 0
0.0793561 0.00819506 0
0.0860791 0.0105933 0
0.0743401 0.00578398 0
0.0676553 -0.000233676 0
0.0914903 0.0151144 0
0.0916916 0.0135342 0
0.0752037 0.00595591 0
0.0700482 0.0026833 0
0.091306 0.0140855 0
0.0907176 0.0111996 0
0.0763945 0.00614466 0
0.0915119 0.0126525 0
0.087984 0.0102162 0
0.062734 -0.00531269 0
0.0713748 0.00326451 0
0.0914699 0.0115846 0
0.0671594 -0.00210029 0
0.0908358 0.014515 0
0.0661956 -0.00330116 0
0.0831612 0.00833349 0
0.0775621 0.0062811 0
0.0907947 0.0142582 0
0.0726516 0.00365479 0
0.0910622 0.012749 0
0.0907544 0.0140074 0
0.0912639 0.0115188 0
0.0906971 0.0136524 0
0.0681579 -0.000990535 0
0.0892527 0.00969591 0
0.0906411 0.0133076 0
0.0791771 0.00639762 0
0.0741251 0.00395125 0
0.0905618 0.0128283 0
0.091011 0.0104612 0
0.0904846 0.012366 0
0.0703338 0.00140443 0
0.0907478 0.0110715 0
0.0707687 0.00157849 0
0.0807314 0.0064202 0
0.0711689 0.00172019 0
0.0903772 0.0117365 0
0.0716617 0.00186039 0
0.0759647 0.0041394 0
0.089992 0.00880043 0
0.0868973 0.00781924 0
0.0902734 0.0111345 0
0.0721332 0.00197668 0
0.0906116 0.0091147 0
0.0898354 0.012276 0
0.0686278 -0.00173808 0
0.0727704 0.00210525 0
0.0826889 0.00630924 0
0.089761 0.0118095 0
0.0694564 -0.000816852 0
0.0901323 0.0103335 0
0.0666697 -0.00417318 0
0.073357 0.00219483 0
0.0648994 -0.00521588 0
0.0903455 0.00902928 0
0.0896571 0.0111707 0
0.0899971 0.00957333 0
0.0901012 0.00787147 0
0.0741363 0.00227703 0
0.0784203 0.00416678 0
0.0843931 0.00604948 0
0.089515 0.010311 0
0.0706771 -3.83896e-05 0
0.0748645 0.00231801 0
0.0679618 -0.00352792 0
0.0898199 0.00858862 0
0.071104 5.86154e-05 0
0.0633617 -0.00641566 0
0.0893253 0.00918281 0
0.0758481 0.00233085 0
0.071766 0.000181981 0
0.0888761 0.0102145 0
0.0691253 -0.00264164 0
0.0889693 0.00634653 0
0.0861237 0.00549936 0
0.0896531 0.00766287 0
0.0888442 0.00999714 0
0.0888128 0.0097844 0
0.0897605 0.00663053 0
0.0887687 0.00948669 0
0.0727058 0.000303836 0
0.0768068 0.00230232 0
0.081569 0.00387265 0
0.0887253 0.00919636 0
0.08908 0.00774564 0
0.0671014 -0.00505808 0
0 0 0
0.0886642 0.00879458 0
0.0894303 0.00649332 0
0.0886043 0.00840485 0
0.0873156 0.00482832 0
0.0710101 -0.00139246 0
0.0404533 -0.00673084 0
0.0780975 0.00220194 0
0.0739233 0.00035753 0
0.0711321 -0.00139238 0
0.0885209 0.00787422 0
0.0712658 -0.00138767 0
0.0714706 -0.00138022 0
0.0884397 0.00736287 0
0.0892034 0.00539814 0
0.0716925 -0.00136838 0
0.069575 -0.00353154 0
0.0887732 0.0059729 0
0.0793551 0.00203558 0
0.0720235 -0.00135577 0
0.0883287 0.00668014 0
0.0754464 0.000264044 0
0.0723742 -0.00134234 0
0.0877958 0.00783705 0
0.0704566 -0.00311498 0
0.0880624 0.00379931 0
0.0848246 0.00297655 0
0.0882212 0.00602706 0
0.087737 0.00743347 0
0.0728558 -0.00134513 0
0.0887934 0.00402488 0
0.068694 -0.005067 0
0.0876558 0.00688846 0
0.0809406 0.00170992 0
0.0674811 -0.00593386 0
0.0733327 -0.00136274 0
0.0880779 0.00517398 0
0.0638863 -0.00751137 0
0.0875446 0.00615847 0
0.0715163 -0.00287888 0
0.0884009 0.00384558 0
0.0739655 -0.00141984 0
0.0879403 0.0043631 0
0.0716431 -0.00294063 0
0.0773982 -6.36604e-05 0
0.0881815 0.00274956 0
0.0536323 -0.0085006 0
0.070034 -0.00459287 0
0.082368 0.00127226 0
0.087395 0.00519746 0
0.0718834 -0.00301124 0
0.0745633 -0.00150768 0
0.0877654 0.00333117 0
0.0722954 -0.00309772 0
0.0867706 0.00563445 0
0.0658702 -0.00738739 0
0.0867452 0.00544265 0
0.0753504 -0.00166695 0
0.0871982 0.00396193 0
0.0867199 0.00525454 0
0.0866851 0.00499691 0
0.0678223 -0.00683032 0
0.0868393 0.00122869 0
0.0866507 0.00474487 0
0.083877 0.000553924 0
0.0876044 0.00236033 0
0.0729644 -0.00321446 0
0.0866027 0.00440034 0
0.0761031 -0.00186193 0
0.087821 0.00138333 0
0.0865552 0.00406462 0
0.0798519 -0.000770803 0
0.0719539 -0.0042755 0
0.0720158 -0.00430944 0
0.0864893 0.00361006 0
0.0869482 0.00241845 0
0.0704221 -0.00563793 0
0.0720773 -0.00434363 0
0.0721662 -0.00439467 0
0.0864243 0.00316956 0
0.0873995 0.00115887 0
0.0739135 -0.00342098 0
0.0722549 -0.00444623 0
0.077087 -0.0021728 0
0.084984 -0.000266375 0
0.072384 -0.00452229 0
0.0693285 -0.00675014 0
0.0863354 0.00258261 0
0.06429 -0.00860605 0
0.0725137 -0.0045996 0
0.0862484 0.0020178 0
0.0727236 -0.00470083 0
0.0713915 -0.00570819 0
0.0223353 -0.00430359 0
0.0871926 3.76821e-05 0
0.0681093 -0.00771952 0
0.0780429 -0.00252726 0
0.0855898 0.00310149 0
0.0866429 0.000554927 0
0.0729421 -0.00480262 0
0.0861327 0.00128034 0
0.0751209 -0.00380615 0
0.0855429 0.00273559 0
0.0407164 -0.00730822 0
0.073291 -0.00492968 0
0.0854795 0.00225355 0
0.0857536 -0.00143032 0
0.0860208 0.00057696 0
0.0825016 -0.00205215 0
0.0853939 0.00161772 0
0.0708075 -0.00686495 0
0.0736477 -0.0050613 0
0.0724253 -0.00585164 0
0.0867239 -0.00133085 0
0.0792422 -0.00305936 0
0.0725329 -0.00592241 0
0.0858769 -0.000320438 0
0.085279 0.000787559 0
0.0726927 -0.00602831 0
0.0741309 -0.00525628 0
0.0862914 -0.00162384 0
0.076614 -0.00446277 0
0.0729232 -0.00618519 0
0.0683575 -0.00863789 0
0.0857398 -0.00116994 0
0.0746029 -0.00546632 0
0.0859391 -0.00259865 0
0.0851269 -0.000276111 0
0.0803542 -0.00366009 0
0.0646033 -0.00969763 0
0.0844766 0.000735833 0
0.073254 -0.00641407 0
0.0844551 0.000557608 0
0.0844338 0.000382761 0
0.0844056 0.000150987 0
0.0855734 -0.00222453 0
0.0665051 -0.00953636 0
0.0698369 -0.00860409 0
0.0752076 -0.00578182 0
0.0843775 -7.58384e-05 0
0.0711106 -0.00807251 0
0.0849302 -0.00160507 0
0.0843395 -0.000378556 0
0.073739 -0.00674273 0
0.0843019 -0.000673718 0
0.0727593 -0.0073862 0
0.0728111 -0.00742314 0
0.0728628 -0.00746027 0
0.0843947 -0.00405509 0
0.081578 -0.00451972 0
0.084251 -0.0010668 0
0.0854226 -0.00321259 0
0.0757822 -0.00612295 0
0.0729372 -0.00751543 0
0.0730112 -0.007571 0
0.0842009 -0.0014482 0
0.0685509 -0.00954917 0
0.0784351 -0.00551273 0
0.0856461 -0.00407081 0
0.0731169 -0.00765242 0
0.084134 -0.00195108 0
0.0732215 -0.00773465 0
0.0846874 -0.00321649 0
0.0744261 -0.00721784 0
0.0733704 -0.00785252 0
0.0840685 -0.0024361 0
0.0765051 -0.00661438 0
0.0720881 -0.00865798 0
0.0852217 -0.00440424 0
0.0735173 -0.00797193 0
0 0 0
0.0825431 -0.00545652 0
0.083983 -0.00306508 0
0.0737218 -0.00814069 0
0.0648104 -0.0107857 0
0.0832119 -0.00194976 0
0.0540421 -0.0103153 0
0.0839001 -0.00366726 0
0.0713787 -0.00947781 0
0.0739253 -0.00831226 0
0.083174 -0.00229517 0
0.0771998 -0.0071369 0
0.0408238 -0.00793057 0
0.0850138 -0.00549714 0
0.0831244 -0.00273265 0
0.0687041 -0.0104983 0
0.075308 -0.00791625 0
0.0844073 -0.00510035 0
0.0742025 -0.0085534 0
0.0837936 -0.00443201 0
0.0730228 -0.00914837 0
0.0830589 -0.00329301 0
0.0731112 -0.00922229 0
0.0732419 -0.00933244 0
0.0744768 -0.0088009 0
0.0804325 -0.00711647 0
0.0836931 -0.00515624 0
0.0832711 -0.00672014 0
0.0829729 -0.00400998 0
0.0701831 -0.0106559 0
0.0734309 -0.00949438 0
0.0780414 -0.00786293 0
0.0844507 -0.00678542 0
0.0748407 -0.00914689 0
0.0828619 -0.0049166 0
0.0835673 -0.00605406 0
0.0736976 -0.00972994 0
0.0763652 -0.0089308 0
0.0688031 -0.0114399 0
0.0668277 -0.0116711 0
0.07155 -0.0108614 0
0.0840864 -0.0072176 0
0.0751896 -0.00950598 0
0.0649336 -0.0118723 0
0.0819847 -0.00446607 0
0.0740637 -0.0100695 0
0.0834535 -0.00689485 0
0.0819684 -0.00463582 0
0.0827229 -0.00603993 0
0.0788295 -0.00863357 0
0.0819521 -0.00480239 0
0.0835127 -0.0079953 0
0.0819317 -0.00501387 0
0.0819115 -0.00522095 0
0.0818852 -0.00548787 0
0.0731666 -0.0108567 0
0.075624 -0.010002 0
0.073208 -0.0108938 0
0.0732493 -0.010931 0
0.0818592 -0.00574832 0
0.0733093 -0.0109862 0
0.074548 -0.0105564 0
0.0833162 -0.00791384 0
0.0733691 -0.0110416 0
0.0818248 -0.00608602 0
0.0734547 -0.0111226 0
0.0825568 -0.00739425 0
0.0817911 -0.00641387 0
0.0735399 -0.0112043 0
0.0736596 -0.0113219 0
0.0688553 -0.0124293 0
0.076026 -0.0105167 0
0.0817465 -0.00683806 0
0.0796945 -0.00966969 0
0.0819842 -0.00940113 0
0.0737784 -0.0114409 0
0.083176 -0.0088781 0
0.0817038 -0.00724699 0
0.0775892 -0.010369 0
0.0724169 -0.0120021 0
0.0739424 -0.01161 0
0.0833042 -0.0095826 0
0.0751578 -0.0112528 0
0.0816479 -0.00777144 0
0.0716431 -0.0124501 0
0.0741032 -0.0117821 0
0.0649626 -0.0129542 0
0.0823632 -0.00898406 0
0.0407909 -0.00852892 0
0.0815958 -0.00827301 0
0.0765007 -0.0112125 0
0.0703113 -0.0129343 0
0.07432 -0.0120235 0
0.0829584 -0.0100391 0
0.0806137 -0.00725047 0
0.0804038 -0.0107641 0
0.0815287 -0.00890663 0
0.0805877 -0.00758233 0
0.0745301 -0.0122706 0
0.0688535 -0.0134117 0
0.0805554 -0.00798302 0
0.0732062 -0.0128145 0
0.0732781 -0.01289 0
0.0814655 -0.00951092 0
0.0769271 -0.0119342 0
0.0758769 -0.0122402 0
0.0805153 -0.00847621 0
0.0733835 -0.0130025 0
0.0748035 -0.012613 0
0.0827044 -0.0111289 0
0.0735341 -0.0131679 0
0.0668601 -0.013796 0
0.082125 -0.0108397 0
0.0804657 -0.00908838 0
0.0813956 -0.0102621 0
0.0750643 -0.0129651 0
0.073744 -0.0134081 0
0.0539668 -0.0121658 0
0.0788665 -0.0123664 0
0.0716179 -0.0140176 0
0.080405 -0.00984667 0
0.0809354 -0.0121874 0
0.0649119 -0.0140343 0
0.0813211 -0.0109849 0
0.0774424 -0.0128707 0
0.0740278 -0.0137535 0
0.0753892 -0.0134467 0
0.068791 -0.0144522 0
0.0820629 -0.0124068 0
0.0803318 -0.0107776 0
0 0 0
0.0812256 -0.0118797 0
0.0766378 -0.0136216 0
0.0792332 -0.00986728 0
0.0743979 -0.0142458 0
0.0756897 -0.0139451 0
0.079224 -0.0100303 0
0.0792149 -0.0101902 0
0.0222375 -0.00484955 0
0.0730979 -0.0147343 0
0.0792043 -0.0103838 0
0.0817478 -0.0129859 0
0.0731302 -0.0147728 0
0.0731624 -0.0148114 0
0.079194 -0.0105731 0
0.0778879 -0.013842 0
0.0732095 -0.0148686 0
0.0802445 -0.0119135 0
0.0811165 -0.0127443 0
0.0791811 -0.0108078 0
0.0732562 -0.0149261 0
0.0811071 -0.0136336 0
0.0733233 -0.0150099 0
0.079169 -0.0110369 0
0.0733897 -0.0150943 0
0.0760424 -0.0146168 0
0.0791533 -0.0113247 0
0.0748585 -0.0149418 0
0.0734832 -0.0152156 0
0.0701463 -0.0154631 0
0.0405972 -0.00918457 0
0.0791385 -0.0116052 0
0.0686746 -0.015486 0
0.0735751 -0.0153382 0
0.0647769 -0.0151092 0
0.0791214 -0.0119591 0
0.0737015 -0.0155118 0
0.0809546 -0.0137987 0
0.0714581 -0.015795 0
0.0722303 -0.0157606 0
0.0791042 -0.0123044 0
0.073825 -0.0156877 0
0.0801215 -0.0133033 0
0.0763468 -0.0153146 0
0.079087 -0.0127412 0
0.078327 -0.015103 0
0.0739899 -0.0159336 0
0.0797795 -0.0150514 0
0.0666181 -0.0159159 0
0.0753924 -0.0159178 0
0.0773349 -0.01552 0
0.0790673 -0.0131691 0
0.0741493 -0.0161838 0
0.0807707 -0.0148159 0
0.0808532 -0.0154209 0
0.0790397 -0.013713 0
0.074355 -0.0165286 0
0.0766666 -0.0162367 0
0.0684842 -0.0165857 0
0.0777158 -0.0126917 0
0.0799258 -0.0149925 0
0.0728085 -0.016905 0
0.0790073 -0.0142479 0
0.0777046 -0.0130186 0
0.0728649 -0.0169832 0
0.0745496 -0.0168813 0
0.072947 -0.0170995 0
0.0645664 -0.0161813 0
0.0776915 -0.0133965 0
0.0804949 -0.0160349 0
0.0786252 -0.0164274 0
0.073064 -0.01727 0
0.0789582 -0.0149243 0
0.0776765 -0.0138449 0
0.0747897 -0.0173608 0
0.0759458 -0.0172723 0
0.0732261 -0.0175165 0
0.0711546 -0.0175481 0
0.0769161 -0.0171928 0
0.0776594 -0.014389 0
0.0789016 -0.0155888 0
0.0734438 -0.0178689 0
0.0750094 -0.0178535 0
0.0801751 -0.017198 0
0.0776354 -0.0150622 0
0.0682358 -0.0176786 0
0.0796051 -0.0170046 0
0.0788189 -0.0164188 0
0.0737248 -0.0183671 0
0.0402627 -0.00978952 0
0.0534153 -0.0140415 0
0.077791 -0.0180827 0
0.0752623 -0.0185131 0
0.0695983 -0.0182556 0
0.077599 -0.0159036 0
0.0787303 -0.0181201 0
0.0771226 -0.0184319 0
0.0642802 -0.0172473 0
0.0787238 -0.0172305 0
0.074069 -0.0190644 0
0.0795048 -0.0185467 0
0.0723454 -0.0190263 0
0.0761138 -0.0154203 0
0.0723708 -0.019066 0
0.072396 -0.0191059 0
0.0754793 -0.019193 0
0.066111 -0.0180346 0
0.076113 -0.015588 0
0.0764155 -0.0191199 0
0.072433 -0.0191647 0
0.0775386 -0.0169579 0
0.0724697 -0.0192239 0
0.0761121 -0.0157538 0
0.0725223 -0.0193099 0
0.076112 -0.0159448 0
0.0725743 -0.0193965 0
0.0785854 -0.0182263 0
0.0761115 -0.016134 0
0.0726472 -0.0195206 0
0.0761107 -0.0163595 0
0.0727188 -0.0196457 0
0.0678987 -0.0188433 0
0.076109 -0.0165833 0
0.0706597 -0.0194986 0
0.0772203 -0.0197118 0
0.0728167 -0.0198223 0
0.0790861 -0.0193404 0
0.0761058 -0.0168567 0
0.0744602 -0.0200307 0
0.0729119 -0.0200008 0
0.0757027 -0.0200874 0
0.0774373 -0.0182678 0
0.0761015 -0.0171283 0
0.0784263 -0.019196 0
0.0785958 -0.0198662 0
0.0713355 -0.0199051 0
0 0 0
0.0730385 -0.0202493 0
0.0760942 -0.0174658 0
0.0639228 -0.0183087 0
0.0731599 -0.0205011 0
0.0760853 -0.017801 0
0.0760714 -0.0182212 0
0.0733155 -0.0208466 0
0.0758654 -0.0210109 0
0.0781973 -0.0203618 0
0.076055 -0.018638 0
0.0772672 -0.01987 0
0.0734614 -0.0211982 0
0.0748545 -0.0213547 0
0.077187 -0.0213291 0
0.0675003 -0.0199988 0
0.0760301 -0.0191617 0
0.0776492 -0.0214401 0
0.0766319 -0.0215874 0
0.0397589 -0.0104591 0
0.0736398 -0.0216733 0
0.0716404 -0.0213622 0
0.076001 -0.0196798 0
0.0716858 -0.0214424 0
0.0779377 -0.0214962 0
0.0717517 -0.0215612 0
0.0742571 -0.0184635 0
0.0759846 -0.0222029 0
0.0780589 -0.0220023 0
0.071845 -0.021735 0
0.0738008 -0.022159 0
0.0759575 -0.0203278 0
0.0742578 -0.0188283 0
0.0700075 -0.0214132 0
0.0634977 -0.0193607 0
0.0719738 -0.0219856 0
0.0742566 -0.0192398 0
0.0653478 -0.0201504 0
0.0769879 -0.0217941 0
0.0685711 -0.0213021 0
0.075907 -0.020967 0
0.0721454 -0.022342 0
0.0739836 -0.0228055 0
0.0742524 -0.0197175 0
0.0769923 -0.0229908 0
0.0751643 -0.0231445 0
0.0775787 -0.0228404 0
0.074243 -0.0202856 0
0.0723649 -0.0228427 0
0.0669955 -0.021228 0
0.0760096 -0.0234336 0
0.075833 -0.021759 0
0.0741363 -0.0234689 0
0.0523985 -0.0159141 0
0.0742251 -0.0209736 0
0.075748 -0.0225383 0
0.0726303 -0.0235379 0
0.0214826 -0.00538469 0
0.0771701 -0.0241392 0
0.074193 -0.0218158 0
0.0630051 -0.0204047 0
0.074286 -0.0243382 0
0.0765432 -0.0240602 0
0.0756262 -0.023491 0
0.0763485 -0.0248014 0
0.0707504 -0.0236293 0
0.0707709 -0.0236698 0
0.0707914 -0.0237103 0
0.0708215 -0.0237703 0
0.0759124 -0.024989 0
0.0708514 -0.0238304 0
0.0729257 -0.0244923 0
0.0765402 -0.025032 0
0.0708944 -0.0239179 0
0.074137 -0.0228506 0
0.0709368 -0.0240057 0
0.0709963 -0.0241314 0
0.0691208 -0.0234908 0
0.0664286 -0.022442 0
0.0722625 -0.0215427 0