# vtk DataFile Version 3.0
File generated from DClib
ASCII

DATASET UNSTRUCTURED_GRID
POINTS 1909 float
50 0 0 
48.75 0 0 
50 1.66667 0 
47.5 0 0 
50 3.33333 0 
46.25 0 0 
50 5 0 
45 0 0 
43.75 0 0 
50 6.66667 0 
43 2 0 
42.5 0 0 
50 8.33333 0 
43 4.66667 0 
41.25 0 0 
41.075 2 0 
50 10 0 
40 0 0 
43 7.33333 0 
39.15 2 0 
38.75 0 0 
43 10 0 
37.5 0 0 
37.225 2 0 
36.25 0 0 
36 4 0 
35.3 2 0 
36 5 0 
35 0 0 
35.325 4 0 
36 6 0 
36 7 0 
34.65 4 0 
36 8 0 
33.75 0 0 
33.975 4 0 
36 9 0 
33.375 2 0 
33.3 4 0 
36 10 0 
32.5 0 0 
32.625 4 0 
33 6 0 
31.95 4 0 
33 7.45455 0 
31.45 2 0 
31.25 0 0 
31.95 6 0 
33 8.79545 0 
31.275 4 0 
33 10 0 
30.6 4 0 
30 0 0 
30.9 6 0 
29.925 4 0 
29.525 2 0 
29.85 6 0 
29.25 4 0 
28.75 0 0 
30 8 0 
30 8.45455 0 
28.575 4 0 
29.625 8 0 
30 8.90909 0 
28.8 6 0 
30 9.25 0 
29.782 8.90909 0 
30 9.59091 0 
29.9487 9.59091 0 
29.25 8 0 
29.7462 9.25 0 
30 9.79545 0 
29.897 9.59091 0 
29.564 8.90909 0 
29.9547 9.79545 0 
29.3462 8.45455 0 
29.84 9.59091 0 
30 10 0 
29.8975 9.79545 0 
29.9882 10 0 
29.9902 10.0098 0 
29.7827 9.59091 0 
29.9765 10 0 
29.9804 10.0196 0 
29.9667 10.0098 0 
29.9591 10 0 
29.9686 10.0196 0 
29.9659 10.0341 0 
29.9569 10.0196 0 
29.9418 10 0 
29.9395 10.0196 0 
29.9515 10.0485 0 
29.932 10.0098 0 
29.9424 10.0341 0 
29.8241 9.79545 0 
29.7181 9.59091 0 
29.9166 10 0 
29.9397 10.0485 0 
29.9222 10.0196 0 
29.9279 10.0485 0 
29.9305 10.0695 0 
29.8914 10 0 
29.9077 10.0341 0 
27.9 4 0 
29.897 10.0196 0 
29.9106 10.0485 0 
29.8817 10.0098 0 
29.907 10.0695 0 
29.8933 10.0485 0 
29.9095 10.0905 0 
29.8719 10.0196 0 
27.6 2 0 
29.8556 10 0 
29.8978 10.0905 0 
29.6531 9.59091 0 
29.3437 8.90909 0 
27.5 0 0 
29.8681 10.0485 0 
29.886 10.0905 0 
29.8574 10.0341 0 
29.4839 9.25 0 
29.8723 10.0695 0 
29.7289 9.79545 0 
29.836 10.0196 0 
29.8687 10.0905 0 
29.8197 10 0 
29.8797 10.1203 0 
29.843 10.0485 0 
29.8513 10.0905 0 
29.81 10.0098 0 
29.8561 10.1203 0 
29.8002 10.0196 0 
29.8221 10.0695 0 
29.8072 10.0485 0 
29.8262 10.0905 0 
29.5782 9.59091 0 
29.8498 10.1502 0 
29.7695 10 0 
29.7858 10.0341 0 
29.838 10.1502 0 
29.8215 10.1203 0 
29.8011 10.0905 0 
29.8262 10.1502 0 
29.7714 10.0485 0 
28.875 8 0 
29.75 10.0196 0 
29.8089 10.1502 0 
29.7654 10.0905 0 
29.7193 10 0 
29.7916 10.1502 0 
29.7505 10.0695 0 
29.8079 10.1921 0 
29.7713 10.1203 0 
29.7096 10.0098 0 
29.6047 9.79545 0 
29.503 9.59091 0 
29.7213 10.0485 0 
29.7665 10.1502 0 
29.6999 10.0196 0 
29.7844 10.1921 0 
29.7296 10.0905 0 
29.6856 10.0341 0 
29.7414 10.1502 0 
29.7497 10.1921 0 
29.6503 10 0 
29.7661 10.2339 0 
29.6712 10.0485 0 
29.6999 10.1203 0 
29.7543 10.2339 0 
29.6796 10.0905 0 
29.7057 10.1502 0 
29.7425 10.2339 0 
29.1235 8.90909 0 
29.6309 10.0196 0 
29.6504 10.0695 0 
29.4146 9.59091 0 
29.7252 10.2339 0 
29.6996 10.1921 0 
29.6701 10.1502 0 
29.7079 10.2339 0 
29.6296 10.0905 0 
29.5813 10 0 
29.6023 10.0485 0 
29.5716 10.0098 0 
29.6828 10.2339 0 
29.7086 10.2914 0 
29.2101 9.25 0 
29.562 10.0196 0 
29.6201 10.1502 0 
29.6578 10.2339 0 
29.4428 9.79545 0 
29.5999 10.1203 0 
29.6849 10.2914 0 
29.6283 10.1921 0 
29.5477 10.0341 0 
29.3259 9.59091 0 
29.5608 10.0905 0 
29.5335 10.0485 0 
29.6221 10.2339 0 
29.6503 10.2914 0 
29.5702 10.1502 0 
29.4881 10 0 
29.5128 10.0695 0 
29.6511 10.3489 0 
29.5866 10.2339 0 
29.6392 10.3489 0 
29.4689 10.0196 0 
29.6002 10.2914 0 
29.6273 10.3489 0 
29.4921 10.0905 0 
29.61 10.3489 0 
29.5286 10.1921 0 
29.5016 10.1502 0 
29.5368 10.2339 0 
29.5926 10.3489 0 
29.4405 10.0485 0 
29.2199 9.59091 0 
29.4626 10.1203 0 
29.3949 10 0 
28.9 8.90909 0 
29.5676 10.3489 0 
29.5291 10.2914 0 
29.3853 10.0098 0 
28.6923 8.45455 0 
29.487 10.2339 0 
29.5426 10.3489 0 
29.3758 10.0196 0 
29.5734 10.4266 0 
29.4331 10.1502 0 
29.3993 10.0905 0 
28.5 8 0 
29.3617 10.0341 0 
29.5496 10.4266 0 
29.5071 10.3489 0 
29.2327 9.79545 0 
29.3475 10.0485 0 
29.1136 9.59091 0 
29.4187 10.2339 0 
29.5148 10.4266 0 
29.4716 10.3489 0 
29.3918 10.1921 0 
29.3271 10.0695 0 
29.4298 10.2914 0 
29.2714 10 0 
29.3406 10.1502 0 
28.9208 9.25 0 
29.3066 10.0905 0 
29.4648 10.4266 0 
29.422 10.3489 0 
29.4958 10.5042 0 
29.2524 10.0196 0 
27.75 6 0 
29.3504 10.2339 0 
29.4837 10.5042 0 
29.4718 10.5042 0 
29.2774 10.1203 0 
29.4543 10.5042 0 
29.3724 10.3489 0 
29.2244 10.0485 0 
29.4369 10.5042 0 
29.3938 10.4266 0 
28.9853 9.59091 0 
29.2481 10.1502 0 
28.6766 8.90909 0 
29.4119 10.5042 0 
29.2934 10.2914 0 
27.225 4 0 
29.148 10 0 
29.2582 10.2339 0 
29.1837 10.0905 0 
29.3869 10.5042 0 
29.1385 10.0098 0 
29.3044 10.3489 0 
29.1291 10.0196 0 
29.2072 10.1921 0 
29.3514 10.5042 0 
29.1152 10.0341 0 
29.3929 10.6071 0 
29.2949 10.4266 0 
29.1013 10.0485 0 
29.3686 10.6071 0 
29.316 10.5042 0 
29.2364 10.3489 0 
28.9623 9.79545 0 
29.1257 10.1502 0 
29.1662 10.2339 0 
29.0811 10.0695 0 
28.8566 9.59091 0 
29.3336 10.6071 0 
29.2666 10.5042 0 
29.0609 10.0905 0 
28.9875 10 0 
29.2835 10.6071 0 
29.1448 10.3489 0 
29.0321 10.1203 0 
29.2173 10.5042 0 
29.1098 10.2914 0 
28.125 8 0 
28.9688 10.0196 0 
29.1594 10.4266 0 
28.611 9.25 0 
29.29 10.71 0 
28.4486 8.90909 0 
29.0443 10.2339 0 
29.0033 10.1502 0 
29.2777 10.71 0 
28.9413 10.0485 0 
29.2128 10.6071 0 
29.2655 10.71 0 
29.1497 10.5042 0 
29.2478 10.71 0 
28.7003 9.59091 0 
29.0533 10.3489 0 
29.2303 10.71 0 
28.9629 10.1921 0 
28.9013 10.0905 0 
29.2051 10.71 0 
29.0822 10.5042 0 
29.1801 10.71 0 
28.827 10 0 
29.1144 10.6071 0 
28.8177 10.0098 0 
28.9225 10.2339 0 
28.8085 10.0196 0 
29.1447 10.71 0 
28.7949 10.0341 0 
28.8443 10.1502 0 
28.977 10.4266 0 
28.9322 10.3489 0 
29.1094 10.71 0 
28.7813 10.0485 0 
28.9912 10.5042 0 
29.1562 10.8438 0 
28.5436 9.59091 0 
28.7615 10.0695 0 
28.8669 10.2914 0 
29.1313 10.8438 0 
28.6184 9.79545 0 
29.0602 10.71 0 
28.2207 8.90909 0 
28.7418 10.0905 0 
28.0378 8.45455 0 
28.9798 10.6071 0 
29.0958 10.8438 0 
29.0112 10.71 0 
28.9005 10.5042 0 
28.7136 10.1203 0 
28.7644 10.2339 0 
28.8113 10.3489 0 
29.0454 10.8438 0 
28.6223 10 0 
28.6854 10.1502 0 
28.2746 9.25 0 
28.9441 10.71 0 
28.6042 10.0196 0 
27.75 8 0 
28.9747 10.8438 0 
28.6459 10.1921 0 
28.5773 10.0485 0 
29.0225 10.9775 0 
28.3532 9.59091 0 
28.7804 10.5042 0 
28.736 10.4266 0 
28.8772 10.71 0 
29.0097 10.9775 0 
28.9971 10.9775 0 
28.799 10.6071 0 
28.9791 10.9775 0 
28.5384 10.0905 0 
28.6064 10.2339 0 
28.6543 10.3489 0 
28.9611 10.9775 0 
28.8769 10.8438 0 
27.9867 8.90909 0 
26.25 0 0 
28.9358 10.9775 0 
28.7871 10.71 0 
28.9106 10.9775 0 
28.6607 10.5042 0 
28.4177 10 0 
26.55 4 0 
28.552 10.2914 0 
28.483 10.1502 0 
28.4087 10.0098 0 
28.8751 10.9775 0 
28.3998 10.0196 0 
28.3866 10.0341 0 
28.8399 10.9775 0 
28.6974 10.71 0 
28.3735 10.0485 0 
28.1625 9.59091 0 
28.7436 10.8438 0 
28.4976 10.3489 0 
28.3543 10.0695 0 
28.791 10.9775 0 
28.4052 10.2339 0 
28.3352 10.0905 0 
28.8519 11.1481 0 
28.1869 9.79545 0 
28.5607 10.6071 0 
28.5053 10.5042 0 
28.7423 10.9775 0 
28.8258 11.1481 0 
28.308 10.1203 0 
28.5787 10.71 0 
27.904 9.25 0 
28.7893 11.1481 0 
28.424 10.4266 0 
27.7528 8.90909 0 
28.2807 10.1502 0 
28.6758 10.9775 0 
27.375 8 0 
28.7383 11.1481 0 
28.1619 10 0 
28.5649 10.8438 0 
28.2425 10.1921 0 
28.6096 10.9775 0 
28.1444 10.0196 0 
28.298 10.3489 0 
28.4605 10.71 0 
26.7 6 0 
27.9315 9.59091 0 
28.3503 10.5042 0 
28.6676 11.1481 0 
28.1187 10.0485 0 
28.2042 10.2339 0 
28.5207 10.9775 0 
28.0813 10.0905 0 
28.6814 11.3186 0 
27.3818 8.45455 0 
28.6679 11.3186 0 
28.1516 10.2914 0 
28.5703 11.1481 0 
28.6544 11.3186 0 
28.6358 11.3186 0 
27.5109 8.90909 0 
28.3072 10.71 0 
28.6173 11.3186 0 
28.2524 10.6071 0 
28.4322 10.9775 0 
28.028 10.1502 0 
28.5915 11.3186 0 
28.0989 10.3489 0 
28.33 10.8438 0 
28.5658 11.3186 0 
28.153 10.5042 0 
27.9061 10 0 
27.8975 10.0098 0 
28.5303 11.3186 0 
28.4384 11.1481 0 
27.7002 9.59091 0 
27.889 10.0196 0 
27.8765 10.0341 0 
28.4949 11.3186 0 
28.3154 10.9775 0 
27.9532 10.2339 0 
27.8639 10.0485 0 
28.0276 10.4266 0 
28.1544 10.71 0 
27.8457 10.0695 0 
27.4909 9.25 0 
28.4463 11.3186 0 
27 8 0 
27.8275 10.0905 0 
28.3979 11.3186 0 
27.8015 10.1203 0 
27.6542 9.79545 0 
25.675 2 0 
28.1991 10.9775 0 
27.2691 8.90909 0 
27.9563 10.5042 0 
28.4682 11.5318 0 
28.2625 11.1481 0 
27.7755 10.1502 0 
28.3322 11.3186 0 
27.8502 10.3489 0 
28.4401 11.5318 0 
25.875 4 0 
27.7391 10.1921 0 
28.4019 11.5318 0 
28.0268 10.8438 0 
28.2668 11.3186 0 
27.9602 10.71 0 
28.3498 11.5318 0 
27.4223 9.59091 0 
27.7026 10.2339 0 
27.5927 10 0 
28.0486 10.9775 0 
27.8616 10.6071 0 
27.5762 10.0196 0 
28.1794 11.3186 0 
28.2786 11.5318 0 
27.5519 10.0485 0 
27.6524 10.2914 0 
28.0319 11.1481 0 
27.7108 10.5042 0 
27.5167 10.0905 0 
27.0169 8.90909 0 
28.0924 11.3186 0 
27.6021 10.3489 0 
27.8988 10.9775 0 
28.1818 11.5318 0 
27.7667 10.71 0 
26.625 8 0 
28.255 11.745 0 
27.4664 10.1502 0 
28.2402 11.745 0 
28.2256 11.745 0 
28.2059 11.745 0 
27.978 11.3186 0 
26.7234 8.45455 0 
27.0259 9.25 0 
27.5342 10.4266 0 
28.1863 11.745 0 
27.1442 9.59091 0 
28.0516 11.5318 0 
28.1598 11.745 0 
27.3959 10.2339 0 
28.1334 11.745 0 
27.2793 10 0 
27.2714 10.0098 0 
27.2635 10.0196 0 
27.7086 10.9775 0 
27.6431 10.8438 0 
28.0975 11.745 0 
27.8643 11.3186 0 
27.4661 10.5042 0 
27.2518 10.0341 0 
27.2401 10.0485 0 
28.0617 11.745 0 
26.7648 8.90909 0 
27.5255 10.71 0 
27.7353 11.1481 0 
27.2231 10.0695 0 
28.0133 11.745 0 
27.2061 10.0905 0 
27.8791 11.5318 0 
27.2986 10.3489 0 
27.1818 10.1203 0 
27.9651 11.745 0 
27.3758 10.6071 0 
27.0077 9.79545 0 
27.7174 11.3186 0 
27.1576 10.1502 0 
25 0 0 
27.5193 10.9775 0 
27.9003 11.745 0 
27.1236 10.1921 0 
26.25 8 0 
27.9939 12.0061 0 
25.65 6 0 
27.8359 11.745 0 
26.8136 9.59091 0 
27.0896 10.2339 0 
27.9626 12.0061 0 
27.2853 10.71 0 
25.2 4 0 
27.5713 11.3186 0 
27.9218 12.0061 0 
26.4998 8.90909 0 
27.167 10.5042 0 
27.6541 11.5318 0 
27.0427 10.2914 0 
27.7503 11.745 0 
26.9033 10 0 
27.8677 12.0061 0 
26.8882 10.0196 0 
26.8659 10.0485 0 
26.9958 10.3489 0 
27.2836 10.9775 0 
27.6652 11.745 0 
27.3609 11.1481 0 
27.7955 12.0061 0 
26.499 9.25 0 
[...]
POINT_DATA 1909
SCALARS phi float 1
LOOKUP_TABLE default
VECTORS Displacement float
0 0 0
0 0 0
0 -0.00801358 0
0 0 0
0 -0.0144958 0
0 0 0
0 -0.0193912 0
0 0 0
0 0 0
0 -0.0228067 0
0.00131731 -0.00938158 0
0 0 0
0 -0.0247113 0
0.00243861 -0.0184445 0
0 0 0
0.00182662 -0.00950502 0
0 -0.0251527 0
0 0 0
0.00301664 -0.02352 0
0.00241572 -0.00966871 0
0 0 0
0.00316923 -0.0248087 0
0 0 0
0.00309176 -0.00992732 0
0 0 0
0.00576715 -0.0177259 0
0.00383718 -0.0103243 0
0.00657164 -0.0203784 0
0 0 0
0.00624433 -0.0179458 0
0.00706668 -0.0224681 0
0.00724875 -0.0239692 0
0.00674093 -0.0182077 0
0.00716627 -0.024977 0
0 0 0
0.00724243 -0.01855 0
0.00696421 -0.0254659 0
0.00460721 -0.0108876 0
0.0077564 -0.018947 0
0.00666454 -0.025555 0
0 0 0
0.00825324 -0.0194131 0
0.00982807 -0.0246317 0
0.00874913 -0.019942 0
0.0100183 -0.0269891 0
0.00533222 -0.0116226 0
0 0 0
0.0107984 -0.0260076 0
0.00934016 -0.0279126 0
0.00920582 -0.0205264 0
0.00786295 -0.027845 0
0.0096434 -0.0211756 0
0 0 0
0.0116867 -0.027598 0
0.0100229 -0.021862 0
0.00592909 -0.0125074 0
0.0124481 -0.0293834 0
0.0103632 -0.0226076 0
0 0 0
0.0130125 -0.0337856 0
0.0129054 -0.034419 0
0.0106352 -0.0233689 0
0.0133482 -0.0347639 0
0.0126634 -0.0348991 0
0.013044 -0.0313164 0
0.012372 -0.0351448 0
0.0129039 -0.0356363 0
0.0119253 -0.035287 0
0.0120075 -0.0355103 0
0.0136427 -0.0357913 0
0.0126631 -0.0361025 0
0.0116206 -0.0352794 0
0.0120871 -0.0357357 0
0.0131196 -0.0363742 0
0.0116934 -0.0355351 0
0.0135041 -0.0363778 0
0.012164 -0.035981 0
0.0110934 -0.0352326 0
0.0117804 -0.035832 0
0.0111501 -0.0353375 0
0.011272 -0.0352969 0
0.01224 -0.0362226 0
0.0112047 -0.0354302 0
0.0113242 -0.0353929 0
0.0113007 -0.0354928 0
0.0112741 -0.035545 0
0.0113399 -0.035486 0
0.0113775 -0.0355235 0
0.0113613 -0.0355633 0
0.0113406 -0.0356469 0
0.0113937 -0.0356638 0
0.0114283 -0.0356314 0
0.0113897 -0.0357015 0
0.0114154 -0.0356608 0
0.011895 -0.0361737 0
0.0123184 -0.0364881 0
0.0114205 -0.0357818 0
0.0114473 -0.0356907 0
0.0114322 -0.0357569 0
0.0114672 -0.0357489 0
0.0115022 -0.0357605 0
0.0114947 -0.0359096 0
0.0114843 -0.0358374 0
0.0108499 -0.0241769 0
0.0114919 -0.0358845 0
0.0114986 -0.0358332 0
0.0115233 -0.035959 0
0.0115355 -0.0358693 0
0.0115307 -0.0359172 0
0.0115644 -0.0358808 0
0.0115511 -0.0360091 0
0.00632064 -0.0134951 0
0.0115849 -0.036085 0
0.0115789 -0.035933 0
0.0123983 -0.0367483 0
0.0133175 -0.0371236 0
0 0 0
0.0115788 -0.0360381 0
0.0115944 -0.035986 0
0.0115904 -0.0360831 0
0.0129343 -0.0370697 0
0.0115908 -0.0360313 0
0.0120434 -0.0365819 0
0.0116312 -0.0361808 0
0.0116185 -0.0360646 0
0.0116685 -0.0362534 0
0.0116382 -0.0360452 0
0.0116272 -0.0361573 0
0.011644 -0.0361437 0
0.0116872 -0.0363002 0
0.0116654 -0.0361479 0
0.0117058 -0.0363472 0
0.0116764 -0.0362648 0
0.0116949 -0.036324 0
0.0116821 -0.0362581 0
0.0124864 -0.037042 0
0.0116998 -0.0362049 0
0.0117712 -0.0364815 0
0.0117334 -0.036417 0
0.0117121 -0.0362553 0
0.0117093 -0.0363012 0
0.0117211 -0.0363721 0
0.0117249 -0.0363059 0
0.0117604 -0.0364872 0
0.0139112 -0.036833 0
0.0118026 -0.0365736 0
0.0117447 -0.036381 0
0.011777 -0.0365332 0
0.0118663 -0.0367031 0
0.0117651 -0.0364564 0
0.0117976 -0.0365896 0
0.0117709 -0.0364231 0
0.0117778 -0.0365242 0
0.011879 -0.0367486 0
0.012227 -0.0370893 0
0.0125749 -0.0373337 0
0.0118475 -0.036711 0
0.0117958 -0.036566 0
0.0118917 -0.0367943 0
0.0117942 -0.0365228 0
0.0118326 -0.0366925 0
0.0119108 -0.0368622 0
0.0118274 -0.0366757 0
0.0118307 -0.0366708 0
0.0119834 -0.0370008 0
0.0118288 -0.0366372 0
0.0119297 -0.0369304 0
0.0118783 -0.0368396 0
0.0118396 -0.0366866 0
0.0119085 -0.0369128 0
0.0118732 -0.0368317 0
0.0118506 -0.0367362 0
0.0135015 -0.0378668 0
0.0120046 -0.0370918 0
0.0119563 -0.03703 0
0.0126752 -0.0376722 0
0.0118674 -0.0368094 0
0.0118867 -0.0368866 0
0.0119195 -0.0369873 0
0.0118845 -0.0368829 0
0.0119819 -0.0371302 0
0.0120915 -0.0372935 0
0.0120355 -0.0372271 0
0.0121002 -0.0373389 0
0.01191 -0.0369897 0
0.0118914 -0.0369273 0
0.0131944 -0.0380598 0
0.0121088 -0.0373843 0
0.011984 -0.0372039 0
0.0119361 -0.0370967 0
0.0124458 -0.0377351 0
0.0120161 -0.0372741 0
0.011912 -0.0370263 0
0.0119698 -0.0371945 0
0.0121217 -0.0374518 0
0.0127739 -0.038011 0
0.0120783 -0.0374257 0
0.0121343 -0.0375196 0
0.011974 -0.0372495 0
0.0119433 -0.0371724 0
0.0120477 -0.0374191 0
0.0122244 -0.0376829 0
0.0121524 -0.0376185 0
0.0119388 -0.0372152 0
0.0120126 -0.0374023 0
0.0119486 -0.0372648 0
0.0122384 -0.0377743 0
0.0119906 -0.037385 0
0.0119584 -0.0373145 0
0.0121699 -0.037718 0
0.0119731 -0.0373876 0
0.0120871 -0.0376235 0
0.0121331 -0.0377131 0
0.0120669 -0.0376161 0
0.011988 -0.0374608 0
0.0122586 -0.0379102 0
0.0128866 -0.0384131 0
0.0121936 -0.0378609 0
0.012347 -0.038069 0
0.013672 -0.0386211 0
0.0120099 -0.037567 0
0.0120603 -0.0376889 0
0.0123526 -0.0381149 0
0.0139627 -0.03839 0
0.0121212 -0.0378295 0
0.0120321 -0.0376733 0
0.0123581 -0.0381609 0
0.0119835 -0.0376021 0
0.0122157 -0.038005 0
0.0122866 -0.0381092 0
0.0141304 -0.0379058 0
0.0123662 -0.038229 0
0.0120022 -0.0377027 0
0.0120643 -0.0378249 0
0.0126981 -0.0385645 0
0.0123741 -0.0382974 0
0.0129954 -0.0388168 0
0.0121951 -0.0381223 0
0.0120301 -0.03785 0
0.0120969 -0.0379768 0
0.0122436 -0.0382085 0
0.0123853 -0.0383972 0
0.0121596 -0.0381148 0
0.0124962 -0.0385762 0
0.0123225 -0.0383968 0
0.0134446 -0.0390967 0
0.0123961 -0.0384975 0
0.0120714 -0.0380634 0
0.0121429 -0.0381896 0
0.0120105 -0.0379895 0
0.0125044 -0.0386693 0
0.0134534 -0.0333376 0
0.0122678 -0.0384139 0
0.0120195 -0.0380405 0
0.0120286 -0.0380915 0
0.0124107 -0.0386414 0
0.0120419 -0.038166 0
0.0121892 -0.0384024 0
0.0125161 -0.0388073 0
0.0120553 -0.0382404 0
0.0121313 -0.0383676 0
0.0131194 -0.0393028 0
0.0124242 -0.0387863 0
0.0138304 -0.0393728 0
0.0120748 -0.0383479 0
0.0122951 -0.0386991 0
0.0109976 -0.0249791 0
0.0126335 -0.0390817 0
0.0123632 -0.0388065 0
0.0125319 -0.0390091 0
0.0120944 -0.0384553 0
0.0126365 -0.0391286 0
0.0122527 -0.038695 0
0.0126394 -0.0391755 0
0.0124409 -0.0389909 0
0.0121225 -0.0386082 0
0.0126436 -0.039245 0
0.0120239 -0.038505 0
0.0122164 -0.0387939 0
0.0126476 -0.0393147 0
0.0120415 -0.0386095 0
0.0121508 -0.0387611 0
0.0123157 -0.0389871 0
0.01298 -0.0396269 0
0.0125514 -0.0392999 0
0.0124552 -0.0391973 0
0.0126531 -0.0394161 0
0.013237 -0.0397903 0
0.0120671 -0.038761 0
0.0121907 -0.0389752 0
0.0126583 -0.0395181 0
0.0127974 -0.0397353 0
0.0121043 -0.0389786 0
0.0123993 -0.0393808 0
0.012665 -0.0396641 0
0.0122306 -0.0391891 0
0.0124705 -0.0394838 0
0.0143251 -0.0389736 0
0.0128006 -0.0398304 0
0.0123332 -0.0393799 0
0.0136828 -0.0402027 0
0.0120166 -0.0390245 0
0.0139754 -0.0401395 0
0.0125718 -0.0397133 0
0.0126709 -0.039811 0
0.0120252 -0.0390782 0
0.0128051 -0.0399713 0
0.0121574 -0.0392872 0
0.0120338 -0.0391317 0
0.0122854 -0.0394833 0
0.0120463 -0.039209 0
0.0133699 -0.0403814 0
0.0124809 -0.0397734 0
0.0120587 -0.0392861 0
0.0126776 -0.0400182 0
0.0128105 -0.040177 0
0.0120766 -0.0393966 0
0.01234 -0.039777 0
0.0120944 -0.0395069 0
0.012947 -0.0403875 0
0.0122319 -0.0397182 0
0.0129477 -0.0404354 0
0.0126824 -0.0402269 0
0.0129483 -0.0404834 0
0.0121198 -0.039663 0
0.0129491 -0.0405544 0
0.0128157 -0.0404727 0
0.0124868 -0.0401685 0
0.0125853 -0.0402921 0
0.0121451 -0.0398189 0
0.0129498 -0.0406256 0
0.0124127 -0.0401731 0
0.0119809 -0.039707 0
0.0134936 -0.0409728 0
0.0129504 -0.0407291 0
0.0126858 -0.0405164 0
0.011998 -0.0398181 0
0.0132835 -0.040973 0
0.0121805 -0.0400364 0
0.0141076 -0.0409038 0
0.0129507 -0.040833 0
0.0143099 -0.0404166 0
0.0123337 -0.0403093 0
0.0120223 -0.0399766 0
0.0122157 -0.0402534 0
0.0124841 -0.0405682 0
0.0129505 -0.0409817 0
0.0128175 -0.0408918 0
0.0126854 -0.0408086 0
0.0120568 -0.0402019 0
0.0131206 -0.0412145 0
0.0129497 -0.0411311 0
0.0139062 -0.0413987 0
0.0122639 -0.0405512 0
0.0131196 -0.0413117 0
0.0144694 -0.040053 0
0.0121052 -0.0405187 0
0.0129473 -0.0413414 0
0.0131176 -0.0414556 0
0.0119209 -0.0403981 0
0.0136309 -0.0416895 0
0.0125762 -0.0410902 0
0.0126787 -0.041207 0
0.0123117 -0.0408482 0
0.0119293 -0.0404559 0
0.0119378 -0.0405134 0
0.0124677 -0.041104 0
0.0119497 -0.0405951 0
0.0131139 -0.0416652 0
0.0129433 -0.041553 0
0.0128087 -0.0414771 0
0.0119616 -0.0406764 0
0.0121721 -0.0409582 0
0.014227 -0.0416854 0
0 0 0
0.0119785 -0.0407916 0
0.0123753 -0.0412482 0
0.0119952 -0.0409064 0
0.012665 -0.0416098 0
0.0132766 -0.0420384 0
0.0110761 -0.02581 0
0.0129354 -0.0418461 0
0.0131063 -0.041966 0
0.0132753 -0.0420874 0
0.0120187 -0.0410676 0
0.0132738 -0.0421364 0
0.0132716 -0.0422088 0
0.012042 -0.0412282 0
0.0124377 -0.0416467 0
0.0132692 -0.0422813 0
0.0137556 -0.0424043 0
0.0122623 -0.041558 0
0.0129244 -0.0421415 0
0.0132655 -0.0423868 0
0.0120742 -0.041451 0
0.0130912 -0.0423912 0
0.0132614 -0.0424925 0
0.0118133 -0.041292 0
0.013594 -0.0426487 0
0.0126364 -0.0421496 0
0.0127753 -0.0422821 0
0.0121061 -0.0416729 0
0.0118304 -0.0414131 0
0.0132552 -0.0426437 0
0.0125184 -0.0421727 0
0.0141112 -0.0427059 0
0.0118541 -0.0415822 0
0.0129047 -0.0425438 0
0.0143327 -0.0424631 0
0.0132483 -0.0427954 0
0.0121493 -0.041976 0
0.0145952 -0.0411213 0
0.011887 -0.0418185 0
0.0134503 -0.0430606 0
0.0123801 -0.0423614 0
0.0132376 -0.0430087 0
0.0121918 -0.0422779 0
0.0134453 -0.0431595 0
0.0130611 -0.0429833 0
0.0125963 -0.0426959 0
0.013674 -0.0353862 0
0.0138899 -0.0432651 0
0.0128794 -0.0429499 0
0.0119323 -0.0421469 0
0.0134377 -0.0433057 0
0.0132256 -0.043223 0
0.0122482 -0.042683 0
0.0134257 -0.0435186 0
0.0116768 -0.0421997 0
0.0145544 -0.0424322 0
0.0116854 -0.0422637 0
0.013207 -0.0435194 0
0.0119937 -0.0425982 0
0.011694 -0.0423272 0
0.0117058 -0.0424152 0
0.0144264 -0.0432613 0
0.0126934 -0.0433721 0
0.0117175 -0.0425027 0
0.0128371 -0.0434934 0
0.0123032 -0.0430861 0
0.0134067 -0.0438235 0
0.0117338 -0.0426246 0
0.013186 -0.0438177 0
0.0125279 -0.043415 0
0.0117499 -0.0427457 0
0.013003 -0.0437951 0
0.0136015 -0.0440748 0
0.0135983 -0.0441245 0
0.0117721 -0.0429137 0
0.0120751 -0.0432096 0
0.0140074 -0.04412 0
0.013595 -0.0441742 0
0.01359 -0.0442477 0
0.011794 -0.0430808 0
0.012374 -0.0436167 0
0.013376 -0.0442536 0
0.0135849 -0.0443212 0
0.0131535 -0.0442233 0
0.0127853 -0.0440429 0
0.0135773 -0.044428 0
0.0142926 -0.0441464 0
0.0118239 -0.0433103 0
0.0146758 -0.0421839 0
0.0135694 -0.0445351 0
0.0118534 -0.0435387 0
0.0135576 -0.044688 0
0.0138883 -0.0446876 0
0.00645728 -0.0145214 0
0.0124423 -0.0441437 0
0.0145055 -0.0440538 0
0.0131163 -0.0446321 0
0.0114696 -0.0433537 0
0.01218 -0.0440235 0
0.0135453 -0.0448413 0
0.0118928 -0.0438484 0
0.0133261 -0.0448508 0
0.0114872 -0.0434896 0
0.0110994 -0.0266176 0
0.0135272 -0.0450566 0
0.011511 -0.0436737 0
0.0127038 -0.0447654 0
0.0119314 -0.0441563 0
0.0128946 -0.044891 0
0.0115431 -0.0439252 0
0.0141275 -0.0451378 0
0.0135079 -0.0452728 0
0.0137598 -0.0453031 0
0.0125271 -0.0448234 0
0.0130598 -0.0451783 0
0.0137514 -0.045403 0
0.011982 -0.0445673 0
0.0115863 -0.0442687 0
0.0137386 -0.0455506 0
0.0134795 -0.0455713 0
0.01231 -0.0450855 0
0.0132438 -0.0456672 0
0.0137193 -0.0457653 0
0.0145731 -0.0448712 0
0.0120311 -0.0449754 0
0.013449 -0.0458713 0
0.0126072 -0.0454966 0
0.0116436 -0.0447347 0
0.0129951 -0.0457297 0
0.01474 -0.0432349 0
0.0112279 -0.0445271 0
0.01369 -0.0460725 0
0.011237 -0.0446001 0
0.011246 -0.0446726 0
0.0112581 -0.0447696 0
0.0120938 -0.0455105 0
0.0147037 -0.0444184 0
0.0144421 -0.0457411 0
0.0134044 -0.0462786 0
0.01127 -0.044866 0
0.0142261 -0.0461441 0
0.0117183 -0.0453594 0
0.0112861 -0.0449967 0
0.0136455 -0.046505 0
0.0113019 -0.0451265 0
0.0138893 -0.0465152 0
0.0138845 -0.0465652 0
0.0138796 -0.0466153 0
0.0127024 -0.0463461 0
0.012899 -0.0464535 0
0.0113233 -0.0453031 0
0.0121538 -0.0460409 0
0.0133557 -0.0466884 0
0.0138722 -0.0466892 0
0.0138647 -0.0467631 0
0.0113443 -0.0454785 0
0.0146255 -0.0456809 0
0.0131082 -0.0467655 0
0.0124632 -0.0464405 0
0.0138537 -0.0468705 0
0.0113725 -0.0457162 0
0.0138424 -0.0469781 0
0.0118129 -0.0461841 0
0.0135774 -0.0471041 0
0.0138258 -0.0471316 0
0.0114001 -0.0459522 0
0.0132851 -0.0472351 0
0.0141333 -0.0471031 0
0.0122278 -0.0467227 0
0.0138088 -0.0472854 0
0 0 0
0.0127897 -0.0471848 0
0.0114365 -0.0462691 0
0.013784 -0.0475013 0
0.0147684 -0.0442675 0
0.0108892 -0.0459908 0
0.0137163 -0.0374072 0
0.011472 -0.0465835 0
0.0143173 -0.0473238 0
0.0137583 -0.0477178 0
0.0109083 -0.0461485 0
0.0132075 -0.0477859 0
0.0110501 -0.0274335 0
0.0122974 -0.0473967 0
0.0109328 -0.0463539 0
0.0146664 -0.0465209 0
0.0134725 -0.0479207 0
0.0119281 -0.0472527 0
0.0137212 -0.0480164 0
0.011518 -0.0469999 0
0.0140112 -0.0479457 0
0.0109648 -0.0466258 0
0.0139998 -0.0480457 0
0.0139828 -0.0481935 0
0.0136823 -0.0483161 0
0.0128876 -0.0482189 0
0.0115623 -0.0474127 0
0.0126318 -0.0481274 0
0.0110067 -0.0469883 0
0.0145481 -0.0475079 0
0.0139572 -0.0484082 0
0.0130961 -0.0485077 0
0.0123794 -0.0482448 0
0.0136266 -0.0487225 0
0.0110611 -0.0474711 0
0.0116182 -0.0479506 0
0.0139192 -0.0487151 0
0.0133105 -0.0490156 0
0.0146917 -0.0473509 0
0.0147664 -0.0463638 0
0.0143817 -0.048484 0
0.0120616 -0.0486077 0
0.0135675 -0.0491307 0
0.014778 -0.0452895 0
0.0105107 -0.0474795 0
0.0138627 -0.0491465 0
0.0116713 -0.0484827 0
0.0105208 -0.0475656 0
0.0111303 -0.0481094 0
0.0129731 -0.0492357 0
0.0105307 -0.047651 0
0.0124542 -0.0490806 0
0.0105433 -0.0477606 0
0.0105558 -0.0478694 0
0.010572 -0.0480118 0
0.0140973 -0.049348 0
0.0134837 -0.0496745 0
0.0140911 -0.0493979 0
0.0140848 -0.0494478 0
0.010588 -0.0481533 0
0.0140755 -0.0495215 0
0.0137788 -0.0497429 0
0.0117361 -0.0491633 0
0.0140661 -0.0495952 0
0.0106089 -0.0483405 0
0.0140522 -0.0497022 0
0.0112162 -0.0489426 0
0.0106294 -0.0485264 0
0.0140381 -0.0498093 0
0.0140176 -0.0499621 0
0.0147042 -0.0482174 0
0.0133938 -0.0502213 0
0.0106562 -0.0487731 0
0.0128 -0.0501722 0
0.0125373 -0.0501084 0
0.0139966 -0.0501151 0
0.0117965 -0.0498349 0
0.0106824 -0.0490179 0
0.0130613 -0.0504591 0
0.0142872 -0.0498803 0
0.0139664 -0.0503297 0
0.0122059 -0.0502856 0
0.0136541 -0.0505538 0
0.0107164 -0.0493415 0
0.0144261 -0.0498186 0
0.0139353 -0.0505447 0
0.0147623 -0.0462855 0
0.0113189 -0.0500121 0
0.0109627 -0.0282145 0
0.0107493 -0.0496622 0
0.0132677 -0.0509367 0
0.0145953 -0.049458 0
0.0138911 -0.0508409 0
0.011867 -0.0506765 0
0.0100087 -0.0492981 0
0.0126093 -0.0511173 0
0.0107913 -0.050082 0
0.01003 -0.0494868 0
0.0138451 -0.051138 0
0.0147012 -0.0490714 0
0.0100562 -0.0497214 0
0.014158 -0.0509586 0
0.0141444 -0.0510578 0
0.0108315 -0.0504975 0
0.0131315 -0.0516567 0
0.0134685 -0.0516376 0
0.0100889 -0.0500201 0
0.0141239 -0.0512044 0
0.0137803 -0.0515401 0
0.0119305 -0.0515043 0
0.0140935 -0.0514172 0
0.0147504 -0.0482622 0
0.0114355 -0.0513581 0
0.0101301 -0.050406 0
0.0108816 -0.0510342 0
0.0137123 -0.0519436 0
0.0140486 -0.051721 0
0.0135975 -0.0393558 0
0.0126823 -0.0523284 0
0.0144387 -0.0511236 0
0.0101821 -0.0509072 0
0.012347 -0.0523095 0
0.014724 -0.0472712 0
0.0109288 -0.0515643 0
0.0129433 -0.052581 0
0.0139828 -0.0521476 0
0.0136174 -0.0524802 0
0.0146831 -0.0499674 0
0.0120003 -0.0525188 0
0.0102467 -0.0515572 0
0 0 0
0.0109857 -0.0522376 0
0.013193 -0.0530612 0
0.00946317 -0.0511452 0
0.0138867 -0.0527362 0
0.013517 -0.0530189 0
0.00947461 -0.0512494 0
0.00948589 -0.0513529 0
0.00633148 -0.0155188 0
0.0141763 -0.0525257 0
0.00949956 -0.0514794 0
0.011559 -0.0530137 0
0.0141692 -0.052575 0
0.014162 -0.0526243 0
0.00951303 -0.0516051 0
0.0127394 -0.0535118 0
0.0141512 -0.0526971 0
0.010325 -0.0523929 0
0.0110383 -0.0529009 0
0.00952975 -0.0517627 0
0.0141404 -0.0527699 0
0.0120598 -0.0535127 0
0.0141244 -0.0528755 0
0.00954619 -0.0519193 0
0.0141083 -0.0529812 0
0.0133784 -0.0537224 0
0.00956693 -0.0521193 0
0.0137464 -0.0535346 0
0.0140849 -0.0531319 0
0.0145652 -0.0515916 0
0.0108077 -0.0289847 0
0.00958723 -0.0523179 0
0.0146496 -0.0508482 0
0.0140611 -0.0532827 0
0.0146686 -0.0482276 0
0.00961301 -0.0525741 0
0.014027 -0.0534941 0
0.0110989 -0.0537275 0
0.0144174 -0.0525922 0
0.0143049 -0.0529709 0
0.0096381 -0.0528282 0
0.0139921 -0.0537057 0
0.0104168 -0.053453 0
0.0132307 -0.054429 0
0.00966985 -0.0531568 0
0.012463 -0.0546833 0
0.0139426 -0.053997 0
0.0121191 -0.0547023 0
0.0146622 -0.0501104 0
0.0135422 -0.0545986 0
0.0127874 -0.054897 0
0.00970051 -0.0534823 0
0.0138916 -0.0542888 0
0.0111529 -0.0545391 0
0.0116763 -0.0549993 0
0.00973883 -0.0539014 0
0.0138202 -0.0546834 0
0.0130294 -0.0553343 0
0.014598 -0.0517754 0
0.00877194 -0.0533499 0
0.010519 -0.0547744 0
0.0141518 -0.0542747 0
0.00977544 -0.0543159 0
0.00879652 -0.0535806 0
0.0141366 -0.0543723 0
0.0137459 -0.0550789 0
0.014114 -0.0545164 0
0.0145884 -0.0491722 0
0.00882514 -0.0538538 0
0.0112114 -0.0555293 0
0.012164 -0.0558627 0
0.0140804 -0.0547254 0
0.00982023 -0.0548444 0
0.00885924 -0.0541863 0
0.0136431 -0.055604 0
0.013246 -0.0559913 0
0.0140312 -0.0550237 0
0.0143606 -0.0540183 0
0.012814 -0.0562439 0
0.00890046 -0.0545995 0
0.00986234 -0.055366 0
0.0139595 -0.0554418 0
0.0135353 -0.0561303 0
0.0112605 -0.0564978 0
0.0089505 -0.0551193 0
0.0145312 -0.0526842 0
0.0106248 -0.0563869 0
0.00991233 -0.0560221 0
0.0138556 -0.0560179 0
0.0106303 -0.0297145 0
0.0133359 -0.0411984 0
0.0121997 -0.0572177 0
0.0133877 -0.0568164 0
0.0144379 -0.0538944 0
0.00901085 -0.0557762 0
0.0117686 -0.0573164 0
0.0125255 -0.0573861 0
0.014496 -0.0500873 0
0.00995825 -0.0566678 0
0.0137058 -0.0567976 0
0.0113083 -0.0576528 0
0.0140803 -0.0559621 0
0.00803763 -0.0555811 0
0.0140726 -0.0560105 0
0.0140649 -0.0560588 0
0.013232 -0.0575042 0
0.0145069 -0.0519063 0
0.00805094 -0.0557091 0
0.0128195 -0.0577797 0
0.0140533 -0.0561301 0
0.00908227 -0.056604 0
0.0140417 -0.0562014 0
0.00806408 -0.0558365 0
0.0140247 -0.0563049 0
0.00807918 -0.0559846 0
0.0140075 -0.0564083 0
0.0100105 -0.0574663 0
0.00809405 -0.056132 0
0.0139826 -0.0565558 0
0.00811161 -0.0563081 0
0.0139573 -0.0567033 0
0.0144428 -0.0536413 0
0.00812886 -0.0564833 0
0.0142571 -0.0555843 0
0.0122165 -0.0585331 0
0.0139212 -0.0569099 0
0.0107229 -0.0583083 0
0.00814967 -0.0566977 0
0.0134903 -0.0578339 0
0.0138842 -0.0571166 0
0.0130218 -0.0583836 0
0.00916415 -0.0576381 0
0.00817001 -0.0569108 0
0.0100567 -0.0582497 0
0.0113433 -0.0587777 0
0.0141455 -0.0562902 0
0 0 0
0.0138322 -0.0574009 0
0.00819487 -0.0571758 0
0.0143794 -0.0509873 0
0.0137786 -0.0576854 0
0.00821904 -0.0574388 0
0.00824867 -0.057769 0
0.013704 -0.0580698 0
0.0127988 -0.0592652 0
0.0101061 -0.0591998 0
0.00827725 -0.0580963 0
0.00925368 -0.0589116 0
0.0136267 -0.0584544 0
0.0131822 -0.0591855 0
0.0118114 -0.0599431 0
0.0143393 -0.0545763 0
0.00831208 -0.0585079 0
0.0113693 -0.0600872 0
0.0122135 -0.06003 0
0.0103962 -0.0304176 0
0.0135202 -0.0589645 0
0.0139521 -0.0577889 0
0.0083453 -0.0589153 0
0.0139364 -0.0578843 0
0.0101471 -0.0601282 0
0.013913 -0.058025 0
0.00714572 -0.058176 0
0.0125025 -0.0603697 0
0.0107968 -0.0605382 0
0.0138784 -0.0582292 0
0.0134091 -0.059475 0
0.00838515 -0.0594253 0
0.00717447 -0.0584594 0
0.0141163 -0.0570925 0
0.0142523 -0.0518587 0
0.0138277 -0.0585201 0
0.0072063 -0.0587799 0
0.0142888 -0.0536469 0
0.00934489 -0.0604514 0
0.0141945 -0.0563334 0
0.00842257 -0.0599289 0
0.0137541 -0.0589276 0
0.0132578 -0.0601392 0
0.00724234 -0.0591521 0
0.0113788 -0.0613567 0
0.0127447 -0.0609141 0
0.0101863 -0.0612302 0
0.00728386 -0.0595947 0
0.013648 -0.0594881 0
0.0142106 -0.0555579 0
0.0121876 -0.0614761 0
0.00846631 -0.0605536 0
0.0130991 -0.0608039 0
0.01295 -0.042912 0
0.00733219 -0.0601303 0
0.00850644 -0.0611687 0
0.0134957 -0.060245 0
0.00597772 -0.0164307 0
0.0102144 -0.0623026 0
0.00738841 -0.0607855 0
0.0141039 -0.0527108 0
0.0128858 -0.0616519 0
0.00942808 -0.062273 0
0.00855154 -0.0619214 0
0.0113703 -0.062798 0
0.0137766 -0.059534 0
0.0137689 -0.0595812 0
0.0137611 -0.0596284 0
0.0137495 -0.059698 0
0.0117775 -0.0628326 0
0.0137379 -0.0597675 0
0.0132782 -0.0612481 0
0.0108261 -0.0630548 0
0.0137208 -0.0598684 0
0.00745308 -0.0615902 0
0.0137036 -0.0599693 0
0.0136786 -0.060113 0
0.0139203 -0.0587033 0
0.0140672 -0.056513 0