# vtk DataFile Version 3.0
File generated from DClib
ASCII

DATASET UNSTRUCTURED_GRID
POINTS 1909 float
50 0 0 
48.75 0 0 
50 1.66667 0 
47.5 0 0 
50 3.33333 0 
46.25 0 0 
50 5 0 
45 0 0 
43.75 0 0 
50 6.66667 0 
43 2 0 
42.5 0 0 
50 8.33333 0 
43 4.66667 0 
41.25 0 0 
41.075 2 0 
50 10 0 
40 0 0 
43 7.33333 0 
39.15 2 0 
38.75 0 0 
43 10 0 
37.5 0 0 
37.225 2 0 
36.25 0 0 
36 4 0 
35.3 2 0 
36 5 0 
35 0 0 
35.325 4 0 
36 6 0 
36 7 0 
34.65 4 0 
36 8 0 
33.75 0 0 
33.975 4 0 
36 9 0 
33.375 2 0 
33.3 4 0 
36 10 0 
32.5 0 0 
32.625 4 0 
33 6 0 
31.95 4 0 
33 7.45455 0 
31.45 2 0 
31.25 0 0 
31.95 6 0 
33 8.79545 0 
31.275 4 0 
33 10 0 
30.6 4 0 
30 0 0 
30.9 6 0 
29.925 4 0 
29.525 2 0 
29.85 6 0 
29.25 4 0 
28.75 0 0 
30 8 0 
30 8.45455 0 
28.575 4 0 
29.625 8 0 
30 8.90909 0 
28.8 6 0 
30 9.25 0 
29.782 8.90909 0 
30 9.59091 0 
29.9487 9.59091 0 
29.25 8 0 
29.7462 9.25 0 
30 9.79545 0 
29.897 9.59091 0 
29.564 8.90909 0 
29.9547 9.79545 0 
29.3462 8.45455 0 
29.84 9.59091 0 
30 10 0 
29.8975 9.79545 0 
29.9882 10 0 
29.9902 10.0098 0 
29.7827 9.59091 0 
29.9765 10 0 
29.9804 10.0196 0 
29.9667 10.0098 0 
29.9591 10 0 
29.9686 10.0196 0 
29.9659 10.0341 0 
29.9569 10.0196 0 
29.9418 10 0 
29.9395 10.0196 0 
29.9515 10.0485 0 
29.932 10.0098 0 
29.9424 10.0341 0 
29.8241 9.79545 0 
29.7181 9.59091 0 
29.9166 10 0 
29.9397 10.0485 0 
29.9222 10.0196 0 
29.9279 10.0485 0 
29.9305 10.0695 0 
29.8914 10 0 
29.9077 10.0341 0 
27.9 4 0 
29.897 10.0196 0 
29.9106 10.0485 0 
29.8817 10.0098 0 
29.907 10.0695 0 
29.8933 10.0485 0 
29.9095 10.0905 0 
29.8719 10.0196 0 
27.6 2 0 
29.8556 10 0 
29.8978 10.0905 0 
29.6531 9.59091 0 
29.3437 8.90909 0 
27.5 0 0 
29.8681 10.0485 0 
29.886 10.0905 0 
29.8574 10.0341 0 
29.4839 9.25 0 
29.8723 10.0695 0 
29.7289 9.79545 0 
29.836 10.0196 0 
29.8687 10.0905 0 
29.8197 10 0 
29.8797 10.1203 0 
29.843 10.0485 0 
29.8513 10.0905 0 
29.81 10.0098 0 
29.8561 10.1203 0 
29.8002 10.0196 0 
29.8221 10.0695 0 
29.8072 10.0485 0 
29.8262 10.0905 0 
29.5782 9.59091 0 
29.8498 10.1502 0 
29.7695 10 0 
29.7858 10.0341 0 
29.838 10.1502 0 
29.8215 10.1203 0 
29.8011 10.0905 0 
29.8262 10.1502 0 
29.7714 10.0485 0 
28.875 8 0 
29.75 10.0196 0 
29.8089 10.1502 0 
29.7654 10.0905 0 
29.7193 10 0 
29.7916 10.1502 0 
29.7505 10.0695 0 
29.8079 10.1921 0 
29.7713 10.1203 0 
29.7096 10.0098 0 
29.6047 9.79545 0 
29.503 9.59091 0 
29.7213 10.0485 0 
29.7665 10.1502 0 
29.6999 10.0196 0 
29.7844 10.1921 0 
29.7296 10.0905 0 
29.6856 10.0341 0 
29.7414 10.1502 0 
29.7497 10.1921 0 
29.6503 10 0 
29.7661 10.2339 0 
29.6712 10.0485 0 
29.6999 10.1203 0 
29.7543 10.2339 0 
29.6796 10.0905 0 
29.7057 10.1502 0 
29.7425 10.2339 0 
29.1235 8.90909 0 
29.6309 10.0196 0 
29.6504 10.0695 0 
29.4146 9.59091 0 
29.7252 10.2339 0 
29.6996 10.1921 0 
29.6701 10.1502 0 
29.7079 10.2339 0 
29.6296 10.0905 0 
29.5813 10 0 
29.6023 10.0485 0 
29.5716 10.0098 0 
29.6828 10.2339 0 
29.7086 10.2914 0 
29.2101 9.25 0 
29.562 10.0196 0 
29.6201 10.1502 0 
29.6578 10.2339 0 
29.4428 9.79545 0 
29.5999 10.1203 0 
29.6849 10.2914 0 
29.6283 10.1921 0 
29.5477 10.0341 0 
29.3259 9.59091 0 
29.5608 10.0905 0 
29.5335 10.0485 0 
29.6221 10.2339 0 
29.6503 10.2914 0 
29.5702 10.1502 0 
29.4881 10 0 
29.5128 10.0695 0 
29.6511 10.3489 0 
29.5866 10.2339 0 
29.6392 10.3489 0 
29.4689 10.0196 0 
29.6002 10.2914 0 
29.6273 10.3489 0 
29.4921 10.0905 0 
29.61 10.3489 0 
29.5286 10.1921 0 
29.5016 10.1502 0 
29.5368 10.2339 0 
29.5926 10.3489 0 
29.4405 10.0485 0 
29.2199 9.59091 0 
29.4626 10.1203 0 
29.3949 10 0 
28.9 8.90909 0 
29.5676 10.3489 0 
29.5291 10.2914 0 
29.3853 10.0098 0 
28.6923 8.45455 0 
29.487 10.2339 0 
29.5426 10.3489 0 
29.3758 10.0196 0 
29.5734 10.4266 0 
29.4331 10.1502 0 
29.3993 10.0905 0 
28.5 8 0 
29.3617 10.0341 0 
29.5496 10.4266 0 
29.5071 10.3489 0 
29.2327 9.79545 0 
29.3475 10.0485 0 
29.1136 9.59091 0 
29.4187 10.2339 0 
29.5148 10.4266 0 
29.4716 10.3489 0 
29.3918 10.1921 0 
29.3271 10.0695 0 
29.4298 10.2914 0 
29.2714 10 0 
29.3406 10.1502 0 
28.9208 9.25 0 
29.3066 10.0905 0 
29.4648 10.4266 0 
29.422 10.3489 0 
29.4958 10.5042 0 
29.2524 10.0196 0 
27.75 6 0 
29.3504 10.2339 0 
29.4837 10.5042 0 
29.4718 10.5042 0 
29.2774 10.1203 0 
29.4543 10.5042 0 
29.3724 10.3489 0 
29.2244 10.0485 0 
29.4369 10.5042 0 
29.3938 10.4266 0 
28.9853 9.59091 0 
29.2481 10.1502 0 
28.6766 8.90909 0 
29.4119 10.5042 0 
29.2934 10.2914 0 
27.225 4 0 
29.148 10 0 
29.2582 10.2339 0 
29.1837 10.0905 0 
29.3869 10.5042 0 
29.1385 10.0098 0 
29.3044 10.3489 0 
29.1291 10.0196 0 
29.2072 10.1921 0 
29.3514 10.5042 0 
29.1152 10.0341 0 
29.3929 10.6071 0 
29.2949 10.4266 0 
29.1013 10.0485 0 
29.3686 10.6071 0 
29.316 10.5042 0 
29.2364 10.3489 0 
28.9623 9.79545 0 
29.1257 10.1502 0 
29.1662 10.2339 0 
29.0811 10.0695 0 
28.8566 9.59091 0 
29.3336 10.6071 0 
29.2666 10.5042 0 
29.0609 10.0905 0 
28.9875 10 0 
29.2835 10.6071 0 
29.1448 10.3489 0 
29.0321 10.1203 0 
29.2173 10.5042 0 
29.1098 10.2914 0 
28.125 8 0 
28.9688 10.0196 0 
29.1594 10.4266 0 
28.611 9.25 0 
29.29 10.71 0 
28.4486 8.90909 0 
29.0443 10.2339 0 
29.0033 10.1502 0 
29.2777 10.71 0 
28.9413 10.0485 0 
29.2128 10.6071 0 
29.2655 10.71 0 
29.1497 10.5042 0 
29.2478 10.71 0 
28.7003 9.59091 0 
29.0533 10.3489 0 
29.2303 10.71 0 
28.9629 10.1921 0 
28.9013 10.0905 0 
29.2051 10.71 0 
29.0822 10.5042 0 
29.1801 10.71 0 
28.827 10 0 
29.1144 10.6071 0 
28.8177 10.0098 0 
28.9225 10.2339 0 
28.8085 10.0196 0 
29.1447 10.71 0 
28.7949 10.0341 0 
28.8443 10.1502 0 
28.977 10.4266 0 
28.9322 10.3489 0 
29.1094 10.71 0 
28.7813 10.0485 0 
28.9912 10.5042 0 
29.1562 10.8438 0 
28.5436 9.59091 0 
28.7615 10.0695 0 
28.8669 10.2914 0 
29.1313 10.8438 0 
28.6184 9.79545 0 
29.0602 10.71 0 
28.2207 8.90909 0 
28.7418 10.0905 0 
28.0378 8.45455 0 
28.9798 10.6071 0 
29.0958 10.8438 0 
29.0112 10.71 0 
28.9005 10.5042 0 
28.7136 10.1203 0 
28.7644 10.2339 0 
28.8113 10.3489 0 
29.0454 10.8438 0 
28.6223 10 0 
28.6854 10.1502 0 
28.2746 9.25 0 
28.9441 10.71 0 
28.6042 10.0196 0 
27.75 8 0 
28.9747 10.8438 0 
28.6459 10.1921 0 
28.5773 10.0485 0 
29.0225 10.9775 0 
28.3532 9.59091 0 
28.7804 10.5042 0 
28.736 10.4266 0 
28.8772 10.71 0 
29.0097 10.9775 0 
28.9971 10.9775 0 
28.799 10.6071 0 
28.9791 10.9775 0 
28.5384 10.0905 0 
28.6064 10.2339 0 
28.6543 10.3489 0 
28.9611 10.9775 0 
28.8769 10.8438 0 
27.9867 8.90909 0 
26.25 0 0 
28.9358 10.9775 0 
28.7871 10.71 0 
28.9106 10.9775 0 
28.6607 10.5042 0 
28.4177 10 0 
26.55 4 0 
28.552 10.2914 0 
28.483 10.1502 0 
28.4087 10.0098 0 
28.8751 10.9775 0 
28.3998 10.0196 0 
28.3866 10.0341 0 
28.8399 10.9775 0 
28.6974 10.71 0 
28.3735 10.0485 0 
28.1625 9.59091 0 
28.7436 10.8438 0 
28.4976 10.3489 0 
28.3543 10.0695 0 
28.791 10.9775 0 
28.4052 10.2339 0 
28.3352 10.0905 0 
28.8519 11.1481 0 
28.1869 9.79545 0 
28.5607 10.6071 0 
28.5053 10.5042 0 
28.7423 10.9775 0 
28.8258 11.1481 0 
28.308 10.1203 0 
28.5787 10.71 0 
27.904 9.25 0 
28.7893 11.1481 0 
28.424 10.4266 0 
27.7528 8.90909 0 
28.2807 10.1502 0 
28.6758 10.9775 0 
27.375 8 0 
28.7383 11.1481 0 
28.1619 10 0 
28.5649 10.8438 0 
28.2425 10.1921 0 
28.6096 10.9775 0 
28.1444 10.0196 0 
28.298 10.3489 0 
28.4605 10.71 0 
26.7 6 0 
27.9315 9.59091 0 
28.3503 10.5042 0 
28.6676 11.1481 0 
28.1187 10.0485 0 
28.2042 10.2339 0 
28.5207 10.9775 0 
28.0813 10.0905 0 
28.6814 11.3186 0 
27.3818 8.45455 0 
28.6679 11.3186 0 
28.1516 10.2914 0 
28.5703 11.1481 0 
28.6544 11.3186 0 
28.6358 11.3186 0 
27.5109 8.90909 0 
28.3072 10.71 0 
28.6173 11.3186 0 
28.2524 10.6071 0 
28.4322 10.9775 0 
28.028 10.1502 0 
28.5915 11.3186 0 
28.0989 10.3489 0 
28.33 10.8438 0 
28.5658 11.3186 0 
28.153 10.5042 0 
27.9061 10 0 
27.8975 10.0098 0 
28.5303 11.3186 0 
28.4384 11.1481 0 
27.7002 9.59091 0 
27.889 10.0196 0 
27.8765 10.0341 0 
28.4949 11.3186 0 
28.3154 10.9775 0 
27.9532 10.2339 0 
27.8639 10.0485 0 
28.0276 10.4266 0 
28.1544 10.71 0 
27.8457 10.0695 0 
27.4909 9.25 0 
28.4463 11.3186 0 
27 8 0 
27.8275 10.0905 0 
28.3979 11.3186 0 
27.8015 10.1203 0 
27.6542 9.79545 0 
25.675 2 0 
28.1991 10.9775 0 
27.2691 8.90909 0 
27.9563 10.5042 0 
28.4682 11.5318 0 
28.2625 11.1481 0 
27.7755 10.1502 0 
28.3322 11.3186 0 
27.8502 10.3489 0 
28.4401 11.5318 0 
25.875 4 0 
27.7391 10.1921 0 
28.4019 11.5318 0 
28.0268 10.8438 0 
28.2668 11.3186 0 
27.9602 10.71 0 
28.3498 11.5318 0 
27.4223 9.59091 0 
27.7026 10.2339 0 
27.5927 10 0 
28.0486 10.9775 0 
27.8616 10.6071 0 
27.5762 10.0196 0 
28.1794 11.3186 0 
28.2786 11.5318 0 
27.5519 10.0485 0 
27.6524 10.2914 0 
28.0319 11.1481 0 
27.7108 10.5042 0 
27.5167 10.0905 0 
27.0169 8.90909 0 
28.0924 11.3186 0 
27.6021 10.3489 0 
27.8988 10.9775 0 
28.1818 11.5318 0 
27.7667 10.71 0 
26.625 8 0 
28.255 11.745 0 
27.4664 10.1502 0 
28.2402 11.745 0 
28.2256 11.745 0 
28.2059 11.745 0 
27.978 11.3186 0 
26.7234 8.45455 0 
27.0259 9.25 0 
27.5342 10.4266 0 
28.1863 11.745 0 
27.1442 9.59091 0 
28.0516 11.5318 0 
28.1598 11.745 0 
27.3959 10.2339 0 
28.1334 11.745 0 
27.2793 10 0 
27.2714 10.0098 0 
27.2635 10.0196 0 
27.7086 10.9775 0 
27.6431 10.8438 0 
28.0975 11.745 0 
27.8643 11.3186 0 
27.4661 10.5042 0 
27.2518 10.0341 0 
27.2401 10.0485 0 
28.0617 11.745 0 
26.7648 8.90909 0 
27.5255 10.71 0 
27.7353 11.1481 0 
27.2231 10.0695 0 
28.0133 11.745 0 
27.2061 10.0905 0 
27.8791 11.5318 0 
27.2986 10.3489 0 
27.1818 10.1203 0 
27.9651 11.745 0 
27.3758 10.6071 0 
27.0077 9.79545 0 
27.7174 11.3186 0 
27.1576 10.1502 0 
25 0 0 
27.5193 10.9775 0 
27.9003 11.745 0 
27.1236 10.1921 0 
26.25 8 0 
27.9939 12.0061 0 
25.65 6 0 
27.8359 11.745 0 
26.8136 9.59091 0 
27.0896 10.2339 0 
27.9626 12.0061 0 
27.2853 10.71 0 
25.2 4 0 
27.5713 11.3186 0 
27.9218 12.0061 0 
26.4998 8.90909 0 
27.167 10.5042 0 
27.6541 11.5318 0 
27.0427 10.2914 0 
27.7503 11.745 0 
26.9033 10 0 
27.8677 12.0061 0 
26.8882 10.0196 0 
26.8659 10.0485 0 
26.9958 10.3489 0 
27.2836 10.9775 0 
27.6652 11.745 0 
27.3609 11.1481 0 
27.7955 12.0061 0 
26.499 9.25 0 
[...]
POINT_DATA 1909
SCALARS phi float 1
LOOKUP_TABLE default
VECTORS Displacement float
0 0 0
0 0 0
0 -0.00116284 0
0 0 0
0 -0.00159184 0
0 0 0
0 -0.0013397 0
0 0 0
0 0 0
0 -0.000476926 0
0.00342029 -0.00103484 0
0 0 0
0 0.000939935 0
0.00666422 -0.000605212 0
0 0 0
0.00460867 -0.00102011 0
0 0.00281031 0
0 0 0
0.00893139 0.001526 0
0.00590803 -0.00103905 0
0 0 0
0.0102016 0.00485991 0
0 0 0
0.00728956 -0.00111652 0
0 0 0
0.0138685 -0.000744586 0
0.00867507 -0.00125227 0
0.0164516 6.33552e-05 0
0 0 0
0.0148632 -0.000818561 0
0.0183808 0.00117854 0
0.0197123 0.00253686 0
0.0158329 -0.000909177 0
0.0205853 0.00400345 0
0 0 0
0.0167918 -0.00105191 0
0.0211662 0.00550898 0
0.00997725 -0.00143664 0
0.0177176 -0.00121398 0
0.0215767 0.00707243 0
0 0 0
0.0185926 -0.00140722 0
0.0239479 0.000465709 0
0.0194193 -0.00161863 0
0.0264393 0.00267932 0
0.0111186 -0.00165872 0
0 0 0
0.0258379 -0.000336881 0
0.0275608 0.00536067 0
0.0201799 -0.00185104 0
0.0274494 0.00900491 0
0.0208772 -0.00209947 0
0 0 0
0.0274091 -0.00115065 0
0.0215035 -0.00236257 0
0.0120375 -0.00191064 0
0.0287227 -0.00201398 0
0.0220563 -0.00264083 0
0 0 0
0.0336724 -0.00020547 0
0.0345978 0.000443738 0
0.0225365 -0.00292877 0
0.034308 -0.000783628 0
0.0354783 0.00120598 0
0.0297825 -0.00292624 0
0.0359923 0.0019534 0
0.035965 0.000723737 0
0.0363658 0.0029031 0
0.0365124 0.00262953 0
0.03486 -0.00136314 0
0.0366025 0.00123312 0
0.0365986 0.00418459 0
0.0366598 0.00240167 0
0.0364 0.00023841 0
0.0367632 0.00383189 0
0.0357757 -0.000756889 0
0.0368168 0.00219425 0
0.0367033 0.00626035 0
0.0369668 0.00344976 0
0.0367712 0.00619305 0
0.0429389 0.00967715 0
0.0369707 0.00200035 0
0.0368393 0.00610906 0
0.0470196 0.0115358 0
0.0423736 0.00911881 0
0.0369389 0.00596239 0
0.0464215 0.0110803 0
0.0475331 0.0112828 0
0.0458252 0.0106182 0
0.0370377 0.00581779 0
0.0449983 0.0100305 0
0.0474971 0.0109825 0
0.0416906 0.00835897 0
0.0469189 0.0106335 0
0.0372197 0.00304447 0
0.0371387 0.00179741 0
0.037173 0.00556602 0
0.0474309 0.0107609 0
0.044313 0.00951662 0
0.0473581 0.0105655 0
0.0475891 0.0107523 0
0.0373031 0.00532689 0
0.045863 0.00986287 0
0.0229372 -0.00323339 0
0.0435612 0.00883248 0
0.0471605 0.010307 0
0.0410787 0.00739767 0
0.0474823 0.0103829 0
0.0468484 0.0100057 0
0.0475412 0.0104903 0
0.0429763 0.00825245 0
0.0126852 -0.00218887 0
0.0374702 0.00497019 0
0.0474977 0.0103113 0
0.0373034 0.00160338 0
0.0367984 -0.000240316 0
0 0 0
0.0463327 0.00950269 0
0.0474508 0.0101315 0
0.0445626 0.00873633 0
0.0371459 0.000553755 0
0.0472314 0.00982226 0
0.0375307 0.00260937 0
0.0423752 0.00750772 0
0.0473773 0.00985714 0
0.0376246 0.00463574 0
0.0475003 0.0101469 0
0.0457512 0.00899069 0
0.0473078 0.00958771 0
0.0405976 0.00627094 0
0.0474175 0.00978205 0
0.0419392 0.00688721 0
0.0465646 0.00895875 0
0.044977 0.00825647 0
0.0471646 0.00921366 0
0.0374864 0.00138874 0
0.0474185 0.0097817 0
0.0378206 0.00421096 0
0.0432234 0.00732722 0
0.0473787 0.00960088 0
0.0472954 0.00926028 0
0.0469746 0.00883736 0
0.0473396 0.0094226 0
0.0442832 0.00759891 0
0.0353815 -0.00194606 0
0.0415081 0.00613486 0
0.0472809 0.0091654 0
0.0466137 0.00831251 0
0.0379971 0.00381474 0
0.0472214 0.00891599 0
0.0453802 0.00775686 0
0.0473065 0.00928235 0
0.0470964 0.00854708 0
0.040261 0.0050595 0
0.0378956 0.00211445 0
0.0376667 0.00118086 0
0.0434954 0.00674929 0
0.0471382 0.0085637 0
0.0412189 0.00550586 0
0.0472344 0.00893682 0
0.0461451 0.00778041 0
0.0420956 0.00581447 0
0.0470605 0.00823159 0
0.0471317 0.00845406 0
0.0382172 0.00335217 0
0.0471793 0.00879321 0
0.04288 0.00603483 0
0.0466215 0.00759807 0
0.0471457 0.00862623 0
0.045455 0.00705288 0
0.0469358 0.00778525 0
0.0471128 0.00846363 0
0.0371602 -0.000704238 0
0.040935 0.0047704 0
0.0439112 0.00626198 0
0.0378721 0.000944749 0
0.0470659 0.00823165 0
0.0469914 0.00781475 0
0.0467944 0.00736515 0
0.0470209 0.00800855 0
0.0447642 0.00637826 0
0.0384146 0.00292111 0
0.0422566 0.00517987 0
0.040053 0.00381513 0
0.0469572 0.00770036 0
0.0470229 0.00816084 0
0.0376648 -9.42822e-05 0
0.0407499 0.00413789 0
0.0465134 0.00681653 0
0.0468952 0.00740767 0
0.0383154 0.00153917 0
0.0455952 0.00637331 0
0.046963 0.00785569 0
0.0468042 0.00700889 0
0.041312 0.0043283 0
0.0380736 0.000712931 0
0.0439382 0.00551779 0
0.0418291 0.0044763 0
0.0468103 0.00701282 0
0.0468799 0.00743579 0
0.0461268 0.00627499 0
0.0386602 0.00243987 0
0.0425726 0.00465842 0
0.0468684 0.00756824 0
0.0467306 0.00664566 0
0.0468414 0.00742524 0
0.0405599 0.00341511 0
0.0467694 0.00687825 0
0.0468152 0.00728617 0
0.0432647 0.00478509 0
0.0467775 0.00708781 0
0.0464306 0.00601453 0
0.045514 0.00556812 0
0.046617 0.00616488 0
0.0467411 0.00689657 0
0.0414367 0.00367548 0
0.0383012 0.000440036 0
0.0441373 0.0048842 0
0.0388858 0.00199068 0
0.0374977 -0.00116201 0
0.0466903 0.00663116 0
0.0466276 0.00617156 0
0.0399482 0.00255768 0
0.0367037 -0.00191947 0
0.0464998 0.00572363 0
0.0466422 0.00637855 0
0.0404383 0.00277525 0
0.0466948 0.00683876 0
0.044852 0.00489791 0
0.0425862 0.00390621 0
0.0358343 -0.00253743 0
0.040831 0.00289845 0
0.0466469 0.00658103 0
0.0465773 0.00603913 0
0.0387958 0.000863457 0
0.0411774 0.00298928 0
0.0385215 0.000170371 0
0.0462643 0.00516227 0
0.0465809 0.00622611 0
0.046516 0.00572008 0
0.0455246 0.00479118 0
0.0416558 0.00309514 0
0.0464523 0.00531758 0
0.0391751 0.00149049 0
0.0440432 0.00404776 0
0.0381631 -0.000748369 0
0.0421177 0.00317778 0
0.0464927 0.00575344 0
0.0464346 0.00530227 0
0.0465303 0.00616537 0
0.0403223 0.00204959 0
0.0305813 -0.00387891 0
0.0459258 0.00461324 0
0.0465093 0.00604635 0
0.0464888 0.0059304 0
0.0427623 0.00326441 0
0.0464598 0.00576527 0
0.046358 0.00491296 0
0.0409502 0.00222014 0
0.0464317 0.00560558 0
0.046379 0.00514597 0
0.0387655 -0.00015341 0
0.0433703 0.00330962 0
0.0378104 -0.00161257 0
0.0463924 0.00538331 0
0.046134 0.00428973 0
0.0232641 -0.00354297 0
0.0394479 0.00102531 0
0.0453652 0.00391009 0
0.0417027 0.00234458 0
0.0463545 0.00516991 0
0.0399842 0.00129328 0
0.0462541 0.00440946 0
0.040281 0.00141035 0
0.0441189 0.00330548 0
0.0463025 0.00487968 0
0.0405593 0.00148559 0
0.0463652 0.0053645 0
0.0462372 0.00438912 0
0.0408025 0.00153679 0
0.0463271 0.00514952 0
0.0462528 0.00460286 0
0.0461493 0.0039446 0
0.0393419 7.6616e-05 0
0.0427091 0.00242258 0
0.0447295 0.00323132 0
0.0411284 0.0015903 0
0.038997 -0.000474049 0
0.0462739 0.00485276 0
0.0461861 0.00423583 0
0.0414325 0.00162613 0
0.0398089 0.000504468 0
0.0462019 0.0044518 0
0.0459343 0.00335437 0
0.0418503 0.0016587 0
0.0461227 0.00388837 0
0.0452914 0.00303236 0
0.0362417 -0.00312795 0
0.0402933 0.000694857 0
0.0460657 0.00347691 0
0.0386389 -0.00143321 0
0.0462119 0.00462561 0
0.0381035 -0.00206823 0
0.0439576 0.00237818 0
0.0422561 0.00167382 0
0.0461955 0.00452563 0
0.040708 0.000777206 0
0.046107 0.00392484 0
0.0461795 0.00442767 0
0.0460387 0.00343821 0
0.0461566 0.00428851 0
0.0392512 -0.00085967 0
0.0456111 0.00277664 0
0.046134 0.00415268 0
0.0428058 0.00166779 0
0.0412181 0.000825323 0
0.0461019 0.00396282 0
0.0459587 0.00301385 0
0.0460703 0.00377863 0
0.0401385 9.63749e-06 0
0.0459851 0.00325319 0
0.0402683 4.35356e-05 0
0.0433264 0.00162951 0
0.0404058 7.77243e-05 0
0.046026 0.00352612 0
0.0405567 9.524e-05 0
0.0418768 0.000826592 0
0.0457656 0.00237979 0
0.0450706 0.00205302 0
0.0459826 0.00328292 0
0.0407059 0.000108135 0
0.045854 0.00247151 0
0.0460442 0.00374517 0
0.039487 -0.00124185 0
0.0409123 0.000116561 0
0.0439516 0.00152165 0
0.0460146 0.00355887 0
0.0399258 -0.000845477 0
0.0459234 0.00295671 0
0.0383718 -0.00252101 0
0.0411146 0.000118346 0
0.0374304 -0.00308368 0
0.0458319 0.00242019 0
0.0459731 0.00330174 0
0.0458659 0.00264451 0
0.0457511 0.00196889 0
0.0413888 0.000108406 0
0.0427357 0.000745783 0
0.0444645 0.00135788 0
0.0459157 0.00295231 0
0.0405077 -0.000589534 0
0.0416533 8.79117e-05 0
0.0390882 -0.00216758 0
0.0457904 0.002236 0
0.0406301 -0.000601192 0
0.0365845 -0.00372395 0
0.0458371 0.0024877 0
0.0420113 4.46793e-05 0
0.0408179 -0.000623194 0
0.0458818 0.00291614 0
0.039749 -0.0016991 0
0.0455366 0.00134194 0
0.0449391 0.00106765 0
0.0457183 0.001848 0
0.0458689 0.00282721 0
0.045856 0.00273991 0
0.0456475 0.00142511 0
0.045838 0.00261745 0
0.0411071 -0.000658333 0
0.0423545 -1.35744e-05 0
0.0437657 0.000506252 0
0.0458201 0.00249756 0
0.0457307 0.0018854 0
0.0386225 -0.00298369 0
0 0 0
0.0457949 0.00233075 0
0.0456247 0.00135372 0
0.0457699 0.00216796 0
0.0452088 0.000733867 0
0.0408157 -0.00117207 0
0.0235078 -0.00387345 0
0.0428058 -0.000116145 0
0.0415254 -0.00072392 0
0.0408606 -0.00118724 0
0.0457352 0.0019447 0
0.0409054 -0.00120254 0
0.0409713 -0.00122603 0
0.0457007 0.00172756 0
0.0455349 0.000886923 0
0.041037 -0.00125017 0
0.0399881 -0.00215298 0
0.045589 0.00112756 0
0.0432327 -0.000240294 0
0.0411327 -0.00128634 0
0.045653 0.00143556 0
0.0420885 -0.000849175 0
0.0412289 -0.0013238 0
0.0456983 0.00192651 0
0.0405012 -0.00194477 0
0.0453361 0.00025886 0
0.0446965 5.66305e-07 0
0.0456052 0.00115303 0
0.045674 0.00175624 0
0.041384 -0.00136963 0
0.0454212 0.000308081 0
0.0395072 -0.00296834 0
0.04564 0.00152406 0
0.0437445 -0.000441755 0
0.0388467 -0.00344536 0
0.0415421 -0.00141653 0
0.0455396 0.000782407 0
0.0368779 -0.00431841 0
0.0455927 0.00120955 0
0.0411264 -0.00185379 0
0.045411 0.000209898 0
0.0417694 -0.00148201 0
0.045474 0.000428087 0
0.0412041 -0.00188691 0
0.0428025 -0.00107496 0
0.0453128 -0.000216806 0
0.0311141 -0.00486799 0
0.0402496 -0.00269535 0
0.0441764 -0.000675833 0
0.0455278 0.000790547 0
0.041319 -0.00193714 0
0.0419973 -0.00155074 0
0.0453883 -2.02374e-05 0
0.0414845 -0.0020131 0
0.0455299 0.000985754 0
0.037988 -0.00424469 0
0.0455189 0.000901504 0
0.0422986 -0.00165695 0
0.0454414 0.000247473 0
0.0455079 0.000818477 0
0.0454925 0.000704759 0
0.0390542 -0.0039215 0
0.0451066 -0.000831654 0
0.0454771 0.000592939 0
0.0445839 -0.00102509 0
0.0453088 -0.000434468 0
0.0417239 -0.00212551 0
0.0454555 0.000440125 0
0.042588 -0.00177236 0
0.0452229 -0.000813988 0
0.0454339 0.000290721 0
0.0436531 -0.00145342 0
0.0413767 -0.00252736 0
0.0414131 -0.00254488 0
0.0454035 8.84959e-05 0
0.0453317 -0.000424936 0
0.0404829 -0.00323544 0
0.0414494 -0.00256258 0
0.0415021 -0.00258901 0
0.0453737 -0.000106846 0
0.0452149 -0.000932438 0
0.0420656 -0.00229156 0
0.0415545 -0.00261572 0
0.0429592 -0.00194465 0
0.0448261 -0.00139779 0
0.0416298 -0.00265507 0
0.0398892 -0.00385413 0
0.0453328 -0.000366269 0
0.0371126 -0.00491634 0
0.0417043 -0.002695 0
0.0452945 -0.000611511 0
0.0418101 -0.00275247 0
0.0410388 -0.00325099 0
0.013018 -0.00249138 0
0.0451409 -0.00137698 0
0.0392342 -0.00439753 0
0.0433135 -0.00212992 0
0.0452973 -0.000149405 0
0.0452043 -0.00120108 0
0.0419153 -0.00281105 0
0.0452457 -0.000927205 0
0.0425315 -0.00253616 0
0.0452789 -0.000311341 0
0.0236753 -0.00420301 0
0.0420608 -0.00289479 0
0.0452547 -0.000523879 0
0.0449625 -0.00189425 0
0.0452032 -0.00121758 0
0.0444466 -0.00206253 0
0.0452231 -0.000801599 0
0.0407246 -0.00387962 0
0.0422055 -0.00298072 0
0.0416228 -0.00332371 0
0.0450591 -0.00190244 0
0.0437323 -0.00239913 0
0.0416859 -0.00335938 0
0.0451536 -0.00157761 0
0.0451828 -0.00115615 0
0.0417791 -0.00341284 0
0.0424029 -0.00310311 0
0.0450757 -0.00204721 0
0.0431091 -0.00290475 0
0.0419139 -0.0034921 0
0.0393956 -0.00489362 0
0.0451125 -0.00190522 0
0.0425956 -0.00323065 0
0.0449788 -0.00238479 0
0.0451345 -0.00159183 0
0.0440921 -0.00269341 0
0.0373009 -0.005517 0
0.0450876 -0.00120543 0
0.042104 -0.00360877 0
0.0450794 -0.00128219 0
0.0450714 -0.00135662 0
0.045061 -0.00145508 0
0.0450699 -0.00230251 0
0.0383786 -0.00541272 0
0.0402183 -0.00484746 0
0.0428464 -0.0034113 0
0.0450511 -0.00154984 0
0.0409256 -0.00452449 0
0.0450827 -0.00210641 0
0.0450384 -0.00167472 0
0.0423641 -0.00377974 0
0.0450268 -0.00179391 0
0.0418242 -0.0041136 0
0.0418534 -0.00413178 0
0.0418826 -0.00415005 0
0.0448301 -0.00296854 0
0.0444304 -0.00310642 0
0.0450132 -0.00194894 0
0.0450287 -0.00267756 0
0.0430834 -0.00360065 0
0.0419252 -0.00417719 0
0.0419677 -0.00420456 0
0.0450012 -0.00209589 0
0.0395288 -0.00539041 0
0.0437813 -0.00344725 0
0.0449527 -0.00299295 0
0.0420286 -0.0042447 0
0.04499 -0.00228415 0
0.0420893 -0.00428537 0
0.0450349 -0.00270465 0
0.0427056 -0.0040305 0
0.0421749 -0.00434425 0
0.0449794 -0.00246323 0
0.0433746 -0.00386395 0
0.0414865 -0.00481372 0
0.0449829 -0.00313791 0
0.0422594 -0.00440428 0
0 0 0
0.0446367 -0.0035425 0
0.0449728 -0.00268943 0
0.0423763 -0.00449027 0
0.0374353 -0.00612073 0
0.0448897 -0.00233196 0
0.0313775 -0.00589355 0
0.0449661 -0.00290701 0
0.041115 -0.00528864 0
0.0424907 -0.00457862 0
0.0448834 -0.00246179 0
0.0436412 -0.00413989 0
0.0237559 -0.00455999 0
0.0449335 -0.00358646 0
0.0448769 -0.0026216 0
0.0396385 -0.00591356 0
0.0431302 -0.00439806 0
0.0449843 -0.00342401 0
0.0426442 -0.00470394 0
0.0449595 -0.00318487 0
0.0420113 -0.00505885 0
0.0448706 -0.00282146 0
0.0420627 -0.00509696 0
0.0421377 -0.00515404 0
0.0427927 -0.00483357 0
0.0443959 -0.00423906 0
0.044952 -0.00345727 0
0.0447541 -0.00411642 0
0.0448642 -0.00307455 0
0.0404655 -0.00597352 0
0.042245 -0.00523864 0
0.0439464 -0.00451434 0
0.0448616 -0.00414671 0
0.0429844 -0.00501552 0
0.0448575 -0.00339742 0
0.0449389 -0.00380745 0
0.0423943 -0.00536293 0
0.0436174 -0.00493276 0
0.0397186 -0.00643832 0
0.0386029 -0.00659549 0
0.0412461 -0.00605575 0
0.0449146 -0.00431251 0
0.0431659 -0.00520529 0
0.0375241 -0.00672955 0
0.0446583 -0.00331358 0
0.0425958 -0.00554437 0
0.0449232 -0.00415307 0
0.0446592 -0.00336972 0
0.0448499 -0.00381266 0
0.0442022 -0.00490913 0
0.0446602 -0.00342505 0
0.0447845 -0.00469005 0
0.0446618 -0.00349581 0
0.0446634 -0.00356576 0
0.0446655 -0.00365713 0
0.0421313 -0.00600878 0
0.0433889 -0.00546877 0
0.0421539 -0.00602882 0
0.0421765 -0.00604898 0
0.0446674 -0.00374775 0
0.0422096 -0.00607888 0
0.0428571 -0.00580807 0
0.0448995 -0.00459411 0
0.0422425 -0.00610902 0
0.0446693 -0.00386735 0
0.0422899 -0.00615314 0
0.0448376 -0.00435013 0
0.0446709 -0.00398629 0
0.0423367 -0.00619776 0
0.0424027 -0.0062622 0
0.0397693 -0.00699563 0
0.0435901 -0.00574613 0
0.0446723 -0.00414363 0
0.0444294 -0.00544031 0
0.0446775 -0.00534703 0
0.0424675 -0.00632767 0
0.044871 -0.00502819 0
0.0446731 -0.00430045 0
0.0440973 -0.00570588 0
0.0417497 -0.00668144 0
0.0425565 -0.00642104 0
0.0448005 -0.00539569 0
0.0431774 -0.00619 0
0.0446728 -0.00450715 0
0.0413314 -0.006956 0
0.0426432 -0.00651641 0
0.0375621 -0.00734155 0
0.044813 -0.00504093 0
0.023757 -0.00490671 0
0.0446716 -0.00471323 0
0.0438165 -0.00612587 0
0.0405882 -0.00725721 0
0.0427586 -0.00665079 0
0.0448256 -0.00557073 0
0.044383 -0.00436616 0
0.044559 -0.00599457 0
0.0446682 -0.00498333 0
0.0443842 -0.0044863 0
0.0428693 -0.00678898 0
0.0397876 -0.00755512 0
0.0443853 -0.00463575 0
0.042185 -0.00713305 0
0.0422243 -0.00717527 0
0.0446627 -0.00525186 0
0.0440012 -0.00652657 0
0.0435353 -0.00674081 0
0.0443861 -0.00482656 0
0.0422814 -0.00723827 0
0.043011 -0.00698142 0
0.0447693 -0.00610513 0
0.0423625 -0.00733112 0
0.0386607 -0.00779832 0
0.0447612 -0.00591248 0
0.0443863 -0.00507423 0
0.0446525 -0.00559999 0
0.0431433 -0.00718066 0
0.0424744 -0.00746652 0
0.0313684 -0.00695605 0
0.0444156 -0.0067986 0
0.041339 -0.00785766 0
0.0443847 -0.00539795 0
0.0446057 -0.00670403 0
0.0375547 -0.00795919 0
0.0446385 -0.00594539 0
0.044171 -0.00706157 0
0.0426238 -0.00766216 0
0.0433033 -0.00745463 0
0.0397702 -0.00815286 0
0.0446852 -0.00676626 0
0.0443788 -0.00582094 0
0 0 0
0.0446146 -0.00638625 0
0.0438739 -0.00752539 0
0.0439877 -0.00544222 0
0.0428142 -0.00794265 0
0.0434452 -0.0077394 0
0.0439884 -0.00550931 0
0.0439891 -0.0055762 0
0.012994 -0.00281121 0
0.0421435 -0.00825184 0
0.0439899 -0.00565806 0
0.044659 -0.00699665 0
0.0421605 -0.00827384 0
0.0421775 -0.00829592 0
0.0439905 -0.00573967 0
0.0442733 -0.00761727 0
0.0422024 -0.00832864 0
0.0443638 -0.00636983 0
0.0445838 -0.00682409 0
0.043991 -0.00584224 0
0.042227 -0.00836154 0
0.044586 -0.00742729 0
0.0422624 -0.00840959 0
0.0439914 -0.00594448 0
0.0422972 -0.00845801 0
0.0436018 -0.00812443 0
0.0439914 -0.00607543 0
0.0430421 -0.00834176 0
0.0423461 -0.00852769 0
0.0405311 -0.00871771 0
0.0236659 -0.00528835 0
0.0439909 -0.00620591 0
0.0397166 -0.0087525 0
0.0423938 -0.00859815 0
0.0374985 -0.00857933 0
0.0439897 -0.00637491 0
0.042459 -0.0086981 0
0.0445353 -0.00737497 0
0.041262 -0.00889534 0
0.0416836 -0.00886467 0
0.0439877 -0.00654322 0
0.042522 -0.00879957 0
0.044331 -0.00707439 0
0.0437268 -0.00852408 0
0.043984 -0.00676191 0
0.0443232 -0.00833086 0
0.0426052 -0.00894153 0
0.0444518 -0.00824263 0
0.0385533 -0.00902274 0
0.0432898 -0.00890428 0
0.0440983 -0.00860917 0
0.0439789 -0.00697962 0
0.0426842 -0.00908626 0
0.0444763 -0.00792368 0
0.0444781 -0.00833974 0
0.0439702 -0.00726145 0
0.0427843 -0.00928598 0
0.0438413 -0.00905231 0
0.0396193 -0.00939531 0
0.0433933 -0.00675916 0
0.0442671 -0.00796805 0
0.041988 -0.00953031 0
0.0439593 -0.00754209 0
0.0433946 -0.00691371 0
0.0420174 -0.00957568 0
0.0428766 -0.00949046 0
0.0420599 -0.00964314 0
0.0373975 -0.0092041 0
0.0433953 -0.00709757 0
0.0443901 -0.00860475 0
0.0443036 -0.00906292 0
0.0421199 -0.00974208 0
0.0439416 -0.00790238 0
0.0433949 -0.00732252 0
0.0429867 -0.00976856 0
0.0435173 -0.00968564 0
0.0422021 -0.00988536 0
0.0410956 -0.00992714 0
0.0439084 -0.00959779 0
0.0433925 -0.00760375 0
0.0439202 -0.00826118 0
0.0423106 -0.0100904 0
0.043083 -0.0100543 0
0.0442905 -0.00928424 0
0.0433864 -0.00796022 0
0.0394835 -0.0100382 0
0.0441525 -0.00908608 0
0.0438874 -0.00871661 0
0.0424472 -0.0103807 0
0.0234929 -0.00564432 0
0.0310844 -0.00805067 0
0.0441098 -0.010047 0
0.0431871 -0.0104367 0
0.0402347 -0.0103607 0
0.0433735 -0.00841495 0
0.0441928 -0.00998539 0
0.0439326 -0.0103001 0
0.0372502 -0.0098291 0
0.0438487 -0.00916989 0
0.0426077 -0.0107873 0
0.0441529 -0.010112 0
0.0417254 -0.0107878 0
0.0426688 -0.00814788 0
0.0417382 -0.010811 0
0.041751 -0.0108343 0
0.0432679 -0.0108305 0
0.0382836 -0.0102661 0
0.0426694 -0.00823693 0
0.0436569 -0.0107481 0
0.0417696 -0.0108687 0
0.0433486 -0.00899487 0
0.0417881 -0.0109033 0
0.0426698 -0.00832573 0
0.0418146 -0.0109536 0
0.0426699 -0.00842917 0
0.0418406 -0.0110043 0
0.0437918 -0.00973696 0
0.0426697 -0.00853232 0
0.0418769 -0.0110769 0
0.0426692 -0.00865601 0
0.0419124 -0.0111501 0
0.039295 -0.0107273 0
0.0426682 -0.00877934 0
0.0408127 -0.0110839 0
0.0438943 -0.011024 0
0.0419604 -0.0112534 0
0.0439614 -0.0104605 0
0.0426664 -0.00893074 0
0.0427776 -0.0113507 0
0.0420067 -0.0113579 0
0.0433373 -0.011348 0
0.0433039 -0.00972999 0
0.0426641 -0.0090817 0
0.0437264 -0.0103005 0
0.0439987 -0.0109351 0
0.0411758 -0.0113175 0
0 0 0
0.0420673 -0.0115033 0
0.0426603 -0.00927016 0
0.0370595 -0.0104565 0
0.0421245 -0.0116507 0
0.0426555 -0.00945804 0
0.0426482 -0.00969487 0
0.0421962 -0.0118528 0
0.0433703 -0.0118814 0
0.0436337 -0.0109932 0
0.0426393 -0.00993085 0
0.0432266 -0.0106514 0
0.0422617 -0.0120585 0
0.0429248 -0.0121215 0
0.0437684 -0.0119369 0
0.0390677 -0.011413 0
0.0426261 -0.0102292 0
0.0437927 -0.0119116 0
0.0436134 -0.0121593 0
0.0232204 -0.00603981 0
0.0423385 -0.0123363 0
0.0413167 -0.0121772 0
0.0426105 -0.0105262 0
0.0413394 -0.0122241 0
0.0435289 -0.0116798 0
0.0413722 -0.0122938 0
0.0416788 -0.00983301 0
0.0433615 -0.0125682 0
0.0436631 -0.0121107 0
0.0414182 -0.0123957 0
0.0424043 -0.0126201 0
0.0425875 -0.0109005 0
0.0416799 -0.0100395 0
0.040436 -0.0122227 0
0.0368265 -0.0110805 0
0.0414809 -0.0125425 0
0.0416798 -0.010274 0
0.0378565 -0.0115217 0
0.043099 -0.0117881 0
0.0396478 -0.0121714 0
0.042561 -0.0112726 0
0.0415631 -0.0127514 0
0.0424729 -0.0129974 0
0.0416779 -0.0105476 0
0.0435636 -0.0128762 0
0.0429929 -0.0131599 0
0.0433855 -0.0125063 0
0.0416731 -0.0108747 0
0.0416653 -0.0130447 0
0.0387776 -0.0121454 0
0.0432994 -0.0132753 0
0.0425227 -0.0117376 0
0.0425227 -0.013384 0
0.0305256 -0.00915921 0
0.0416633 -0.0112731 0
0.042479 -0.0121992 0
0.0417832 -0.0134517 0
0.0125852 -0.00312916 0
0.0432254 -0.0133222 0