# vtk DataFile Version 3.0
File generated from DClib
ASCII

DATASET UNSTRUCTURED_GRID
POINTS 1909 float
50 0 0 
48.75 0 0 
50 1.66667 0 
47.5 0 0 
50 3.33333 0 
46.25 0 0 
50 5 0 
45 0 0 
43.75 0 0 
50 6.66667 0 
43 2 0 
42.5 0 0 
50 8.33333 0 
43 4.66667 0 
41.25 0 0 
41.075 2 0 
50 10 0 
40 0 0 
43 7.33333 0 
39.15 2 0 
38.75 0 0 
43 10 0 
37.5 0 0 
37.225 2 0 
36.25 0 0 
36 4 0 
35.3 2 0 
36 5 0 
35 0 0 
35.325 4 0 
36 6 0 
36 7 0 
34.65 4 0 
36 8 0 
33.75 0 0 
33.975 4 0 
36 9 0 
33.375 2 0 
33.3 4 0 
36 10 0 
32.5 0 0 
32.625 4 0 
33 6 0 
31.95 4 0 
33 7.45455 0 
31.45 2 0 
31.25 0 0 
31.95 6 0 
33 8.79545 0 
31.275 4 0 
33 10 0 
30.6 4 0 
30 0 0 
30.9 6 0 
29.925 4 0 
29.525 2 0 
29.85 6 0 
29.25 4 0 
28.75 0 0 
30 8 0 
30 8.45455 0 
28.575 4 0 
29.625 8 0 
30 8.90909 0 
28.8 6 0 
30 9.25 0 
29.782 8.90909 0 
30 9.59091 0 
29.9487 9.59091 0 
29.25 8 0 
29.7462 9.25 0 
30 9.79545 0 
29.897 9.59091 0 
29.564 8.90909 0 
29.9547 9.79545 0 
29.3462 8.45455 0 
29.84 9.59091 0 
30 10 0 
29.8975 9.79545 0 
29.9882 10 0 
29.9902 10.0098 0 
29.7827 9.59091 0 
29.9765 10 0 
29.9804 10.0196 0 
29.9667 10.0098 0 
29.9591 10 0 
29.9686 10.0196 0 
29.9659 10.0341 0 
29.9569 10.0196 0 
29.9418 10 0 
29.9395 10.0196 0 
29.9515 10.0485 0 
29.932 10.0098 0 
29.9424 10.0341 0 
29.8241 9.79545 0 
29.7181 9.59091 0 
29.9166 10 0 
29.9397 10.0485 0 
29.9222 10.0196 0 
29.9279 10.0485 0 
29.9305 10.0695 0 
29.8914 10 0 
29.9077 10.0341 0 
27.9 4 0 
29.897 10.0196 0 
29.9106 10.0485 0 
29.8817 10.0098 0 
29.907 10.0695 0 
29.8933 10.0485 0 
29.9095 10.0905 0 
29.8719 10.0196 0 
27.6 2 0 
29.8556 10 0 
29.8978 10.0905 0 
29.6531 9.59091 0 
29.3437 8.90909 0 
27.5 0 0 
29.8681 10.0485 0 
29.886 10.0905 0 
29.8574 10.0341 0 
29.4839 9.25 0 
29.8723 10.0695 0 
29.7289 9.79545 0 
29.836 10.0196 0 
29.8687 10.0905 0 
29.8197 10 0 
29.8797 10.1203 0 
29.843 10.0485 0 
29.8513 10.0905 0 
29.81 10.0098 0 
29.8561 10.1203 0 
29.8002 10.0196 0 
29.8221 10.0695 0 
29.8072 10.0485 0 
29.8262 10.0905 0 
29.5782 9.59091 0 
29.8498 10.1502 0 
29.7695 10 0 
29.7858 10.0341 0 
29.838 10.1502 0 
29.8215 10.1203 0 
29.8011 10.0905 0 
29.8262 10.1502 0 
29.7714 10.0485 0 
28.875 8 0 
29.75 10.0196 0 
29.8089 10.1502 0 
29.7654 10.0905 0 
29.7193 10 0 
29.7916 10.1502 0 
29.7505 10.0695 0 
29.8079 10.1921 0 
29.7713 10.1203 0 
29.7096 10.0098 0 
29.6047 9.79545 0 
29.503 9.59091 0 
29.7213 10.0485 0 
29.7665 10.1502 0 
29.6999 10.0196 0 
29.7844 10.1921 0 
29.7296 10.0905 0 
29.6856 10.0341 0 
29.7414 10.1502 0 
29.7497 10.1921 0 
29.6503 10 0 
29.7661 10.2339 0 
29.6712 10.0485 0 
29.6999 10.1203 0 
29.7543 10.2339 0 
29.6796 10.0905 0 
29.7057 10.1502 0 
29.7425 10.2339 0 
29.1235 8.90909 0 
29.6309 10.0196 0 
29.6504 10.0695 0 
29.4146 9.59091 0 
29.7252 10.2339 0 
29.6996 10.1921 0 
29.6701 10.1502 0 
29.7079 10.2339 0 
29.6296 10.0905 0 
29.5813 10 0 
29.6023 10.0485 0 
29.5716 10.0098 0 
29.6828 10.2339 0 
29.7086 10.2914 0 
29.2101 9.25 0 
29.562 10.0196 0 
29.6201 10.1502 0 
29.6578 10.2339 0 
29.4428 9.79545 0 
29.5999 10.1203 0 
29.6849 10.2914 0 
29.6283 10.1921 0 
29.5477 10.0341 0 
29.3259 9.59091 0 
29.5608 10.0905 0 
29.5335 10.0485 0 
29.6221 10.2339 0 
29.6503 10.2914 0 
29.5702 10.1502 0 
29.4881 10 0 
29.5128 10.0695 0 
29.6511 10.3489 0 
29.5866 10.2339 0 
29.6392 10.3489 0 
29.4689 10.0196 0 
29.6002 10.2914 0 
29.6273 10.3489 0 
29.4921 10.0905 0 
29.61 10.3489 0 
29.5286 10.1921 0 
29.5016 10.1502 0 
29.5368 10.2339 0 
29.5926 10.3489 0 
29.4405 10.0485 0 
29.2199 9.59091 0 
29.4626 10.1203 0 
29.3949 10 0 
28.9 8.90909 0 
29.5676 10.3489 0 
29.5291 10.2914 0 
29.3853 10.0098 0 
28.6923 8.45455 0 
29.487 10.2339 0 
29.5426 10.3489 0 
29.3758 10.0196 0 
29.5734 10.4266 0 
29.4331 10.1502 0 
29.3993 10.0905 0 
28.5 8 0 
29.3617 10.0341 0 
29.5496 10.4266 0 
29.5071 10.3489 0 
29.2327 9.79545 0 
29.3475 10.0485 0 
29.1136 9.59091 0 
29.4187 10.2339 0 
29.5148 10.4266 0 
29.4716 10.3489 0 
29.3918 10.1921 0 
29.3271 10.0695 0 
29.4298 10.2914 0 
29.2714 10 0 
29.3406 10.1502 0 
28.9208 9.25 0 
29.3066 10.0905 0 
29.4648 10.4266 0 
29.422 10.3489 0 
29.4958 10.5042 0 
29.2524 10.0196 0 
27.75 6 0 
29.3504 10.2339 0 
29.4837 10.5042 0 
29.4718 10.5042 0 
29.2774 10.1203 0 
29.4543 10.5042 0 
29.3724 10.3489 0 
29.2244 10.0485 0 
29.4369 10.5042 0 
29.3938 10.4266 0 
28.9853 9.59091 0 
29.2481 10.1502 0 
28.6766 8.90909 0 
29.4119 10.5042 0 
29.2934 10.2914 0 
27.225 4 0 
29.148 10 0 
29.2582 10.2339 0 
29.1837 10.0905 0 
29.3869 10.5042 0 
29.1385 10.0098 0 
29.3044 10.3489 0 
29.1291 10.0196 0 
29.2072 10.1921 0 
29.3514 10.5042 0 
29.1152 10.0341 0 
29.3929 10.6071 0 
29.2949 10.4266 0 
29.1013 10.0485 0 
29.3686 10.6071 0 
29.316 10.5042 0 
29.2364 10.3489 0 
28.9623 9.79545 0 
29.1257 10.1502 0 
29.1662 10.2339 0 
29.0811 10.0695 0 
28.8566 9.59091 0 
29.3336 10.6071 0 
29.2666 10.5042 0 
29.0609 10.0905 0 
28.9875 10 0 
29.2835 10.6071 0 
29.1448 10.3489 0 
29.0321 10.1203 0 
29.2173 10.5042 0 
29.1098 10.2914 0 
28.125 8 0 
28.9688 10.0196 0 
29.1594 10.4266 0 
28.611 9.25 0 
29.29 10.71 0 
28.4486 8.90909 0 
29.0443 10.2339 0 
29.0033 10.1502 0 
29.2777 10.71 0 
28.9413 10.0485 0 
29.2128 10.6071 0 
29.2655 10.71 0 
29.1497 10.5042 0 
29.2478 10.71 0 
28.7003 9.59091 0 
29.0533 10.3489 0 
29.2303 10.71 0 
28.9629 10.1921 0 
28.9013 10.0905 0 
29.2051 10.71 0 
29.0822 10.5042 0 
29.1801 10.71 0 
28.827 10 0 
29.1144 10.6071 0 
28.8177 10.0098 0 
28.9225 10.2339 0 
28.8085 10.0196 0 
29.1447 10.71 0 
28.7949 10.0341 0 
28.8443 10.1502 0 
28.977 10.4266 0 
28.9322 10.3489 0 
29.1094 10.71 0 
28.7813 10.0485 0 
28.9912 10.5042 0 
29.1562 10.8438 0 
28.5436 9.59091 0 
28.7615 10.0695 0 
28.8669 10.2914 0 
29.1313 10.8438 0 
28.6184 9.79545 0 
29.0602 10.71 0 
28.2207 8.90909 0 
28.7418 10.0905 0 
28.0378 8.45455 0 
28.9798 10.6071 0 
29.0958 10.8438 0 
29.0112 10.71 0 
28.9005 10.5042 0 
28.7136 10.1203 0 
28.7644 10.2339 0 
28.8113 10.3489 0 
29.0454 10.8438 0 
28.6223 10 0 
28.6854 10.1502 0 
28.2746 9.25 0 
28.9441 10.71 0 
28.6042 10.0196 0 
27.75 8 0 
28.9747 10.8438 0 
28.6459 10.1921 0 
28.5773 10.0485 0 
29.0225 10.9775 0 
28.3532 9.59091 0 
28.7804 10.5042 0 
28.736 10.4266 0 
28.8772 10.71 0 
29.0097 10.9775 0 
28.9971 10.9775 0 
28.799 10.6071 0 
28.9791 10.9775 0 
28.5384 10.0905 0 
28.6064 10.2339 0 
28.6543 10.3489 0 
28.9611 10.9775 0 
28.8769 10.8438 0 
27.9867 8.90909 0 
26.25 0 0 
28.9358 10.9775 0 
28.7871 10.71 0 
28.9106 10.9775 0 
28.6607 10.5042 0 
28.4177 10 0 
26.55 4 0 
28.552 10.2914 0 
28.483 10.1502 0 
28.4087 10.0098 0 
28.8751 10.9775 0 
28.3998 10.0196 0 
28.3866 10.0341 0 
28.8399 10.9775 0 
28.6974 10.71 0 
28.3735 10.0485 0 
28.1625 9.59091 0 
28.7436 10.8438 0 
28.4976 10.3489 0 
28.3543 10.0695 0 
28.791 10.9775 0 
28.4052 10.2339 0 
28.3352 10.0905 0 
28.8519 11.1481 0 
28.1869 9.79545 0 
28.5607 10.6071 0 
28.5053 10.5042 0 
28.7423 10.9775 0 
28.8258 11.1481 0 
28.308 10.1203 0 
28.5787 10.71 0 
27.904 9.25 0 
28.7893 11.1481 0 
28.424 10.4266 0 
27.7528 8.90909 0 
28.2807 10.1502 0 
28.6758 10.9775 0 
27.375 8 0 
28.7383 11.1481 0 
28.1619 10 0 
28.5649 10.8438 0 
28.2425 10.1921 0 
28.6096 10.9775 0 
28.1444 10.0196 0 
28.298 10.3489 0 
28.4605 10.71 0 
26.7 6 0 
27.9315 9.59091 0 
28.3503 10.5042 0 
28.6676 11.1481 0 
28.1187 10.0485 0 
28.2042 10.2339 0 
28.5207 10.9775 0 
28.0813 10.0905 0 
28.6814 11.3186 0 
27.3818 8.45455 0 
28.6679 11.3186 0 
28.1516 10.2914 0 
28.5703 11.1481 0 
28.6544 11.3186 0 
28.6358 11.3186 0 
27.5109 8.90909 0 
28.3072 10.71 0 
28.6173 11.3186 0 
28.2524 10.6071 0 
28.4322 10.9775 0 
28.028 10.1502 0 
28.5915 11.3186 0 
28.0989 10.3489 0 
28.33 10.8438 0 
28.5658 11.3186 0 
28.153 10.5042 0 
27.9061 10 0 
27.8975 10.0098 0 
28.5303 11.3186 0 
28.4384 11.1481 0 
27.7002 9.59091 0 
27.889 10.0196 0 
27.8765 10.0341 0 
28.4949 11.3186 0 
28.3154 10.9775 0 
27.9532 10.2339 0 
27.8639 10.0485 0 
28.0276 10.4266 0 
28.1544 10.71 0 
27.8457 10.0695 0 
27.4909 9.25 0 
28.4463 11.3186 0 
27 8 0 
27.8275 10.0905 0 
28.3979 11.3186 0 
27.8015 10.1203 0 
27.6542 9.79545 0 
25.675 2 0 
28.1991 10.9775 0 
27.2691 8.90909 0 
27.9563 10.5042 0 
28.4682 11.5318 0 
28.2625 11.1481 0 
27.7755 10.1502 0 
28.3322 11.3186 0 
27.8502 10.3489 0 
28.4401 11.5318 0 
25.875 4 0 
27.7391 10.1921 0 
28.4019 11.5318 0 
28.0268 10.8438 0 
28.2668 11.3186 0 
27.9602 10.71 0 
28.3498 11.5318 0 
27.4223 9.59091 0 
27.7026 10.2339 0 
27.5927 10 0 
28.0486 10.9775 0 
27.8616 10.6071 0 
27.5762 10.0196 0 
28.1794 11.3186 0 
28.2786 11.5318 0 
27.5519 10.0485 0 
27.6524 10.2914 0 
28.0319 11.1481 0 
27.7108 10.5042 0 
27.5167 10.0905 0 
27.0169 8.90909 0 
28.0924 11.3186 0 
27.6021 10.3489 0 
27.8988 10.9775 0 
28.1818 11.5318 0 
27.7667 10.71 0 
26.625 8 0 
28.255 11.745 0 
27.4664 10.1502 0 
28.2402 11.745 0 
28.2256 11.745 0 
28.2059 11.745 0 
27.978 11.3186 0 
26.7234 8.45455 0 
27.0259 9.25 0 
27.5342 10.4266 0 
28.1863 11.745 0 
27.1442 9.59091 0 
28.0516 11.5318 0 
28.1598 11.745 0 
27.3959 10.2339 0 
28.1334 11.745 0 
27.2793 10 0 
27.2714 10.0098 0 
27.2635 10.0196 0 
27.7086 10.9775 0 
27.6431 10.8438 0 
28.0975 11.745 0 
27.8643 11.3186 0 
27.4661 10.5042 0 
27.2518 10.0341 0 
27.2401 10.0485 0 
28.0617 11.745 0 
26.7648 8.90909 0 
27.5255 10.71 0 
27.7353 11.1481 0 
27.2231 10.0695 0 
28.0133 11.745 0 
27.2061 10.0905 0 
27.8791 11.5318 0 
27.2986 10.3489 0 
27.1818 10.1203 0 
27.9651 11.745 0 
27.3758 10.6071 0 
27.0077 9.79545 0 
27.7174 11.3186 0 
27.1576 10.1502 0 
25 0 0 
27.5193 10.9775 0 
27.9003 11.745 0 
27.1236 10.1921 0 
26.25 8 0 
27.9939 12.0061 0 
25.65 6 0 
27.8359 11.745 0 
26.8136 9.59091 0 
27.0896 10.2339 0 
27.9626 12.0061 0 
27.2853 10.71 0 
25.2 4 0 
27.5713 11.3186 0 
27.9218 12.0061 0 
26.4998 8.90909 0 
27.167 10.5042 0 
27.6541 11.5318 0 
27.0427 10.2914 0 
27.7503 11.745 0 
26.9033 10 0 
27.8677 12.0061 0 
26.8882 10.0196 0 
26.8659 10.0485 0 
26.9958 10.3489 0 
27.2836 10.9775 0 
27.6652 11.745 0 
27.3609 11.1481 0 
27.7955 12.0061 0 
26.499 9.25 0 
[...]
POINT_DATA 1909
SCALARS phi float 1
LOOKUP_TABLE default
VECTORS Displacement float
0 0 0
0 0 0
0 -0.00560998 0
0 0 0
0 -0.00776099 0
0 0 0
0 -0.00670947 0
0 0 0
0 0 0
0 -0.00276572 0
0.0159553 -0.0048654 0
0 0 0
0 0.00380405 0
0.030926 -0.00288155 0
0 0 0
0.021643 -0.0047696 0
0 0.012263 0
0 0 0
0.0411834 0.00687694 0
0.0278922 -0.00484418 0
0 0 0
0.0466787 0.0222665 0
0 0 0
0.0345696 -0.00520751 0
0 0 0
0.0655107 -0.00324784 0
0.0413031 -0.00586345 0
0.0772508 0.000713984 0
0 0 0
0.0702805 -0.00358914 0
0.085703 0.00607199 0
0.0911595 0.0125097 0
0.0749615 -0.00401411 0
0.0944242 0.0192844 0
0 0 0
0.0796161 -0.00469096 0
0.0969521 0.0262851 0
0.0476574 -0.00676841 0
0.0841362 -0.00546596 0
0.0993369 0.0342764 0
0 0 0
0.0884355 -0.0064012 0
0.113108 0.00305146 0
0.0925142 -0.00743058 0
0.123928 0.0144301 0
0.0532335 -0.00786846 0
0 0 0
0.122553 -0.000735522 0
0.128496 0.0296376 0
0.0962777 -0.00857122 0
0.129164 0.0510765 0
0.0997372 -0.0097955 0
0 0 0
0.130504 -0.00467999 0
0.102851 -0.0111004 0
0.0577048 -0.00911975 0
0.137192 -0.00894885 0
0.105596 -0.0124821 0
0 0 0
0.160557 0.000999089 0
0.16514 0.00448992 0
0.107981 -0.0139178 0
0.163839 -0.00188437 0
0.169593 0.0088336 0
0.142604 -0.013515 0
0.172836 0.0150864 0
0.172047 0.00610599 0
0.176092 0.0239943 0
0.176832 0.0218331 0
0.166733 -0.00484238 0
0.176025 0.0102099 0
0.176844 0.0302259 0
0.177548 0.0200366 0
0.174255 0.00365189 0
0.177557 0.028026 0
0.171267 -0.00152473 0
0.178249 0.0182285 0
0.176996 0.0374213 0
0.1785 0.0254885 0
0.177326 0.0375371 0
0.228929 0.0561327 0
0.178902 0.0166395 0
0.177702 0.0374891 0
0.263547 0.0677174 0
0.227573 0.0552872 0
0.178283 0.0373705 0
0.262112 0.0668865 0
0.266445 0.0673216 0
0.260489 0.0658874 0
0.178912 0.0371227 0
0.25778 0.064491 0
0.266593 0.0664904 0
0.225271 0.0535661 0
0.265107 0.0656656 0
0.179778 0.0227549 0
0.179558 0.0150307 0
0.179837 0.0364564 0
0.266477 0.0657777 0
0.255088 0.0629761 0
0.266375 0.0651257 0
0.267054 0.065615 0
0.180792 0.0357541 0
0.262124 0.063413 0
0.109958 -0.0154341 0
0.251429 0.0607084 0
0.26603 0.0642813 0
0.222387 0.0504506 0
0.266858 0.0643771 0
0.265534 0.0633346 0
0.266737 0.064609 0
0.248001 0.0584616 0
0.0608137 -0.0104955 0
0.182089 0.0343351 0
0.266676 0.0639947 0
0.18016 0.0135473 0
0.176381 0.00133561 0
0 0 0
0.264486 0.0618147 0
0.266597 0.0633553 0
0.25732 0.0597233 0
0.178892 0.00646651 0
0.266447 0.0624241 0
0.181456 0.0198645 0
0.243788 0.0551285 0
0.266457 0.0623421 0
0.183354 0.0329839 0
0.266345 0.0631953 0
0.263015 0.0601309 0
0.266308 0.0612776 0
0.219181 0.0455929 0
0.266204 0.061807 0
0.239897 0.0519926 0
0.265213 0.0591719 0
0.260634 0.0574699 0
0.266041 0.0596722 0
0.180814 0.0120051 0
0.265751 0.0615904 0
0.184956 0.0308497 0
0.250611 0.0539119 0
0.265671 0.0608564 0
0.26596 0.0596189 0
0.26574 0.0580315 0
0.265588 0.0601058 0
0.257893 0.0547807 0
0.169509 -0.00781424 0
0.235268 0.0477065 0
0.265458 0.0589835 0
0.265102 0.0557175 0
0.186416 0.0288577 0
0.265322 0.0578522 0
0.26215 0.0542474 0
0.264861 0.0591964 0
0.265551 0.0563547 0
0.215677 0.0391179 0
0.183522 0.0167906 0
0.181427 0.0105405 0
0.253971 0.0509592 0
0.26512 0.0562082 0
0.231198 0.0438443 0
0.26471 0.0576535 0
0.264223 0.0534087 0
0.242063 0.046126 0
0.264914 0.0545871 0
0.264475 0.0553823 0
0.188162 0.0262551 0
0.263927 0.0567201 0
0.249951 0.047331 0
0.264727 0.0518191 0
0.263844 0.055936 0
0.262571 0.0502617 0
0.264619 0.0523265 0
0.26376 0.0551595 0
0.178338 -0.000965691 0
0.226529 0.0390241 0
0.256377 0.0475135 0
0.182152 0.0089774 0
0.263638 0.0540287 0
0.264119 0.052186 0
0.264333 0.0501609 0
0.263517 0.0529182 0
0.260444 0.0471943 0
0.189644 0.0238175 0
0.244668 0.0426026 0
0.211929 0.0315912 0
0.263346 0.0513461 0
0.26266 0.053317 0
0.181542 0.00294997 0
0.222671 0.034798 0
0.263836 0.0472966 0
0.26318 0.0498236 0
0.185894 0.0134657 0
0.262618 0.0459635 0
0.262511 0.051805 0
0.263623 0.0479446 0
0.232289 0.0370001 0
0.182876 0.00748661 0
0.257018 0.0431926 0
0.2397 0.0382971 0
0.262947 0.0477409 0
0.262295 0.0496621 0
0.263231 0.0446039 0
0.191346 0.0210137 0
0.247505 0.0391504 0
0.261402 0.0500246 0
0.26272 0.0457599 0
0.26133 0.0492941 0
0.21837 0.0299073 0
0.26199 0.0467344 0
0.261259 0.0485778 0
0.253189 0.0393905 0
0.261157 0.0475479 0
0.26292 0.0426458 0
0.261984 0.0411853 0
0.262416 0.0431366 0
0.261056 0.0465459 0
0.233622 0.0330876 0
0.183758 0.0058329 0
0.257714 0.0388195 0
0.192709 0.0183539 0
0.180182 -0.00329441 0
0.260916 0.0451401 0
0.261582 0.0429064 0
0.208027 0.0236431 0
0.176223 -0.00745515 0
0.262134 0.0406953 0
0.260779 0.0437867 0
0.215015 0.0256661 0
0.259882 0.0458486 0
0.260259 0.0379442 0
0.247765 0.0346407 0
0.171937 -0.0108764 0
0.222268 0.0273555 0
0.259754 0.0445044 0
0.260594 0.0419413 0
0.188435 0.00972507 0
0.228321 0.0284803 0
0.184664 0.00424757 0
0.261715 0.0375699 0
0.259572 0.0426267 0
0.260418 0.0401874 0
0.261338 0.0363393 0
0.236042 0.0296346 0
0.261068 0.0381447 0
0.194227 0.0154154 0
0.257175 0.0339169 0
0.183997 -0.000640649 0
0.242302 0.0302421 0
0.259323 0.0400804 0
0.260182 0.0378708 0
0.25837 0.0419483 0
0.211343 0.0209129 0
0.146673 -0.0183209 0
0.261248 0.034694 0
0.258315 0.0413197 0
0.258261 0.0407045 0
0.248811 0.0303756 0
0.258184 0.0398242 0
0.259958 0.035694 0
0.222335 0.0231707 0
0.25811 0.0389678 0
0.258992 0.0367525 0
0.18576 0.00242403 0
0.253423 0.0300625 0
0.181897 -0.00562002 0
0.258004 0.0377693 0
0.260443 0.032467 0
0.111564 -0.0169761 0
0.195416 0.0125913 0
0.260221 0.0311269 0
0.235399 0.0249391 0
0.257901 0.0366125 0
0.204301 0.0155849 0
0.259668 0.0328902 0
0.208622 0.0167734 0
0.256941 0.0290126 0
0.257757 0.0350312 0
0.213244 0.0177831 0
0.256638 0.0372479 0
0.258572 0.0325597 0
0.217526 0.0185743 0
0.256542 0.0361074 0
0.257618 0.0335176 0
0.259397 0.0302809 0
0.190973 0.00528986 0
0.247809 0.0253236 0
0.258678 0.0277628 0
0.22361 0.0195456 0
0.18687 0.000655155 0
0.256404 0.0345221 0
0.257429 0.0314985 0
0.22912 0.0202 0
0.19669 0.00936336 0
0.256213 0.0323654 0
0.259025 0.0269789 0
0.23607 0.0207392 0
0.257247 0.0295802 0
0.259125 0.0258434 0
0.174143 -0.0139107 0
0.20578 0.0121136 0
0.258057 0.0274496 0
0.186272 -0.00444222 0
0.254885 0.0329019 0
0.183479 -0.008009 0
0.255687 0.0236597 0
0.241799 0.0208575 0
0.254848 0.0323729 0
0.212649 0.013405 0
0.255956 0.0295106 0
0.254811 0.0318538 0
0.257004 0.0270855 0
0.25476 0.0311147 0
0.18818 -0.00143117 0
0.258616 0.0239266 0
0.254709 0.0303922 0
0.247694 0.0204576 0
0.222166 0.0146679 0
0.254635 0.0293806 0
0.25677 0.0247281 0
0.254563 0.0283966 0
0.197699 0.00624229 0
0.255616 0.025844 0
0.201578 0.00745455 0
0.251779 0.0197064 0
0.203948 0.0080445 0
0.254459 0.0270449 0
0.206572 0.0085458 0
0.234178 0.0154762 0
0.25745 0.021396 0
0.257649 0.0201745 0
0.254356 0.025738 0
0.209136 0.00897087 0
0.256467 0.0217321 0
0.252865 0.027768 0
0.189457 -0.0034804 0
0.212898 0.0095067 0
0.254789 0.0182418 0
0.252797 0.0267906 0
0.193372 -0.000104681 0
0.254211 0.0239809 0
0.18493 -0.0103976 0
0.216678 0.0099471 0
0.180157 -0.013482 0
0.255173 0.0212749 0
0.2527 0.0254372 0
0.254067 0.0222934 0
0.25618 0.0189216 0
0.22206 0.0104257 0
0.245774 0.0149346 0
0.256095 0.0166478 0
0.252565 0.023589 0
0.198719 0.00256348 0
0.227175 0.0106835 0
0.188447 -0.00847284 0
0.253866 0.0200769 0
0.202389 0.00348665 0
0.175991 -0.0169837 0
0.252377 0.0211185 0
0.233668 0.010727 0
0.206163 0.00405304 0
0.250872 0.0229818 0
0.190921 -0.00592639 0
0.2558 0.0154222 0
0.256162 0.0143994 0
0.253667 0.0179646 0
0.250846 0.0225191 0
0.250819 0.022064 0
0.254612 0.0157603 0
0.250782 0.021424 0
0.211626 0.00459977 0
0.239145 0.0104286 0
0.25296 0.0124657 0
0.250745 0.020796 0
0.252122 0.0179042 0
0.18623 -0.0128637 0
0 0 0
0.250692 0.0199214 0
0.253401 0.0152654 0
0.250638 0.0190666 0
0.255378 0.0122001 0
0.199552 -0.000995125 0
0.112743 -0.0186163 0
0.244822 0.0095846 0
0.219899 0.00507591 0
0.200715 -0.000741689 0
0.250561 0.0178937 0
0.201733 -0.000565998 0
0.203046 -0.000397181 0
0.250483 0.016754 0
0.253141 0.0127218 0
0.204364 -0.00025471 0
0.192288 -0.00834796 0
0.251781 0.0138555 0
0.248743 0.00846863 0
0.206318 -7.92644e-05 0
0.250374 0.0152206 0
0.231024 0.00506867 0
0.208338 6.84855e-05 0
0.248507 0.0173375 0
0.195646 -0.00656262 0
0.253967 0.00938036 0
0.25436 0.00835732 0
0.250265 0.0137428 0
0.248462 0.0164645 0
0.211358 0.000235735 0
0.252816 0.00957805 0
0.190546 -0.0127833 0
0.248399 0.0152753 0
0.251598 0.00666446 0
0.187391 -0.0153206 0
0.214562 0.000360172 0
0.250117 0.0118023 0
0.177575 -0.0200651 0
0.24831 0.0136662 0
0.200287 -0.00521379 0
0.251342 0.00895423 0
0.219215 0.000427775 0
0.249971 0.00995371 0
0.201481 -0.00511303 0
0.242316 0.00377338 0
0.252527 0.0066614 0
0.149358 -0.0233071 0
0.19379 -0.0112466 0
0.252734 0.0047958 0
0.248187 0.0115261 0
0.203253 -0.00503885 0
0.223879 0.000339408 0
0.249781 0.00759307 0
0.20598 -0.00499962 0
0.246178 0.0120487 0
0.18308 -0.019569 0
0.246161 0.0116309 0
0.229924 -4.16369e-05 0
0.24802 0.00875214 0
0.246143 0.0112203 0
0.24612 0.0106559 0
0.188431 -0.0178447 0
0.252129 0.0031193 0
0.246096 0.0101027 0
0.252608 0.00228074 0
0.249601 0.0053732 0
0.210256 -0.00505813 0
0.246063 0.00934441 0
0.23524 -0.00071479 0
0.25079 0.00326328 0
0.24603 0.00860435 0
0.24944 0.000624014 0
0.200931 -0.00927398 0
0.201283 -0.00930228 0
0.245984 0.00759977 0
0.247797 0.00527034 0
0.195124 -0.0141253 0
0.201656 -0.00932791 0
0.202222 -0.00936815 0
0.245939 0.0066256 0
0.249375 0.00260588 0
0.217133 -0.00532654 0
0.202829 -0.00940407 0
0.240878 -0.00197778 0
0.251663 -0.000181178 0
0.203754 -0.00945953 0
0.192499 -0.0174838 0
0.245877 0.0053235 0
0.178818 -0.0231548 0
0.20472 -0.00952168 0
0.245818 0.0040704 0
0.206158 -0.009625 0
0.198015 -0.0139921 0
0.0623448 -0.011976 0
0.249144 -1.54965e-05 0
0.189327 -0.0203544 0
0.244846 -0.00347979 0
0.243556 0.00598289 0
0.247504 0.00103688 0
0.207679 -0.00974287 0
0.245737 0.00242797 0
0.227102 -0.00617423 0
0.243532 0.00519391 0
0.113537 -0.0202464 0
0.210001 -0.00992675 0
0.243498 0.00415197 0
0.250082 -0.00330965 0
0.24566 0.000854945 0
0.250552 -0.0041672 0
0.243451 0.00277247 0
0.196463 -0.0175634 0
0.212546 -0.0101365 0
0.201624 -0.0139656 0
0.248837 -0.0032634 0
0.247732 -0.00570731 0
0.20207 -0.0141089 0
0.245559 -0.00117037 0
0.243385 0.000961297 0
0.202839 -0.0143 0
0.216333 -0.0105025 0
0.247108 -0.00407078 0
0.238028 -0.00833358 0
0.204097 -0.014572 0
0.190123 -0.0229479 0
0.245451 -0.00312485 0
0.220347 -0.0109823 0
0.248479 -0.0063841 0
0.243294 -0.00138091 0
0.248791 -0.00797742 0
0.179803 -0.0262481 0
0.240853 0.000327473 0
0.206087 -0.0149886 0
0.240849 -4.94542e-05 0
0.240844 -0.000419985 0
0.240839 -0.00091316 0
0.245298 -0.00561845 0
0.185053 -0.0256525 0
0.194174 -0.022698 0
0.225695 -0.0118542 0
0.240834 -0.00139725 0
0.197569 -0.0209736 0
0.24317 -0.00436728 0
0.240826 -0.00204636 0
0.209266 -0.0156512 0
0.240818 -0.0026824 0
0.202259 -0.0184935 0
0.202431 -0.0185798 0
0.202612 -0.0186642 0
0.247935 -0.0102306 0
0.24846 -0.010959 0
0.240808 -0.0035342 0
0.24512 -0.00804535 0
0.230675 -0.0129873 0
0.202873 -0.0187922 0
0.203148 -0.0189179 0
0.240796 -0.00436816 0
0.190764 -0.0255305 0
0.245184 -0.012426 0
0.246487 -0.0102594 0
0.203571 -0.0190978 0
0.24078 -0.00547846 0
0.204013 -0.0192775 0
0.242986 -0.00815622 0
0.214546 -0.0167277 0
0.204682 -0.0195331 0
0.24076 -0.00656694 0
0.236106 -0.0148005 0
0.200317 -0.022465 0
0.244856 -0.0111077 0
0.205377 -0.0197952 0
0 0 0
0.24731 -0.0139011 0
0.240729 -0.00800633 0
0.206404 -0.0201711 0
0.180478 -0.0293337 0
0.237843 -0.00602184 0
0.150646 -0.0284402 0
0.24069 -0.00942179 0
0.198554 -0.0249835 0
0.207496 -0.0205601 0
0.23784 -0.00676236 0
0.240053 -0.0168355 0
0.113889 -0.0220041 0
0.244553 -0.0140789 0
0.237833 -0.00771119 0
0.19129 -0.0282278 0
0.222769 -0.0185883 0
0.24268 -0.0129244 0
0.209137 -0.0211138 0
0.240621 -0.0112735 0
0.203137 -0.0236408 0
0.237823 -0.00894673 0
0.203373 -0.0238427 0
0.203752 -0.0241355 0
0.210964 -0.0216928 0
0.245942 -0.0182872 0
0.240539 -0.0130932 0
0.245458 -0.0176028 0
0.237803 -0.010568 0
0.195396 -0.0285357 0
0.204358 -0.0245527 0
0.242938 -0.0196593 0
0.2441 -0.0177347 0
0.213719 -0.0225392 0
0.237767 -0.0126963 0
0.240412 -0.0154403 0
0.205273 -0.0251592 0
0.232731 -0.0218715 0
0.191653 -0.0309158 0
0.186146 -0.0317166 0
0.199219 -0.0289554 0
0.242151 -0.0187888 0
0.216788 -0.0234772 0
0.180911 -0.0324245 0
0.234752 -0.0121029 0
0.206649 -0.0260456 0
0.240264 -0.0177353 0
0.234756 -0.0124791 0
0.237695 -0.0154733 0
0.243895 -0.0224694 0
0.234759 -0.0128514 0
0.243572 -0.0212555 0
0.234763 -0.0133281 0
0.234766 -0.0138001 0
0.234768 -0.0144163 0
0.203698 -0.0286607 0
0.221027 -0.0249203 0
0.203823 -0.0287629 0
0.203947 -0.0288656 0
0.234769 -0.0150266 0
0.204123 -0.029018 0
0.208794 -0.0273484 0
0.240038 -0.0206321 0
0.204298 -0.0291713 0
0.234767 -0.0158314 0
0.204549 -0.0293952 0
0.237561 -0.0190486 0
0.234762 -0.0166284 0
0.204798 -0.0296212 0
0.205153 -0.0299471 0
0.191877 -0.0337483 0
0.225299 -0.0265964 0
0.234751 -0.0176813 0
0.243345 -0.0260398 0
0.242807 -0.0255086 0
0.205505 -0.0302777 0
0.239775 -0.0234494 0
0.234737 -0.0187229 0
0.239778 -0.0271512 0
0.201736 -0.032148 0
0.205992 -0.0307494 0
0.241247 -0.025795 0
0.21234 -0.0292843 0
0.234711 -0.0200928 0
0.199652 -0.0335446 0
0.206475 -0.0312309 0
0.181068 -0.0355064 0
0.23731 -0.0235546 0
0.113843 -0.0236996 0
0.234679 -0.021444 0
0.230169 -0.0290583 0
0.195963 -0.0350762 0
0.207149 -0.0319053 0
0.239387 -0.0269231 0
0.231096 -0.0191586 0
0.241937 -0.0295592 0
0.234625 -0.0232022 0
0.231102 -0.0199533 0
0.207835 -0.0325965 0
0.191932 -0.0365691 0
0.231106 -0.0209376 0
0.20407 -0.0343766 0
0.204274 -0.0345854 0
0.234558 -0.0249303 0
0.233944 -0.0317346 0
0.218169 -0.0322373 0
0.231106 -0.0221859 0
0.204577 -0.0348966 0
0.2089 -0.0335191 0
0.23894 -0.030283 0
0.205014 -0.0353547 0
0.186384 -0.0377874 0
0.236859 -0.029098 0
0.231097 -0.0237909 0
0.234453 -0.0271444 0
0.210028 -0.0344722 0
0.205623 -0.0360215 0
0.150546 -0.0336977 0
0.240216 -0.0342612 0
0.199698 -0.0380809 0
0.231073 -0.0258635 0
0.23977 -0.0338976 0
0.180998 -0.0385939 0
0.234326 -0.0293128 0
0.23682 -0.0352619 0
0.20645 -0.0369841 0
0.211723 -0.035781 0
0.191819 -0.0395596 0
0.238293 -0.0343189 0
0.231015 -0.0285294 0
0 0 0
0.234131 -0.032041 0
0.226259 -0.0367674 0
0.227301 -0.0261194 0
0.207526 -0.0383646 0
0.21361 -0.0371743 0
0.227304 -0.0265447 0
0.227307 -0.026967 0
0.0621128 -0.01352 0
0.203916 -0.0400073 0
0.22731 -0.0274827 0
0.236076 -0.0357323 0
0.204013 -0.040117 0
0.204111 -0.0402272 0
0.227313 -0.0279945 0
0.237726 -0.0386995 0
0.20425 -0.0403903 0
0.230897 -0.0319222 0
0.233902 -0.0347009 0
0.227314 -0.0286356 0
0.204388 -0.0405543 0
0.237541 -0.0381913 0
0.204585 -0.0407938 0
0.227314 -0.0292714 0
0.20478 -0.0410351 0
0.216342 -0.0391646 0
0.227312 -0.0300822 0
0.208976 -0.0403276 0
0.205054 -0.0413826 0
0.19565 -0.0423693 0
0.113338 -0.0255568 0
0.227307 -0.0308853 0
0.191532 -0.0425335 0
0.205323 -0.041734 0
0.180677 -0.0416703 0
0.227297 -0.0319191 0
0.205691 -0.0422329 0
0.233561 -0.0379792 0
0.199345 -0.0432326 0
0.20152 -0.0430729 0
0.227283 -0.0329418 0
0.206049 -0.0427392 0
0.230672 -0.0361741 0
0.219393 -0.041382 0
0.227258 -0.03426 0
0.236999 -0.0429391 0
0.206531 -0.0434466 0
0.236485 -0.0427638 0
0.185804 -0.0438712 0
0.211005 -0.0431419 0
0.23287 -0.0433936 0
0.227227 -0.0355618 0
0.206992 -0.0441669 0
0.233163 -0.0411615 0
0.23477 -0.0434542 0
0.227175 -0.037231 0
0.20759 -0.0451555 0
0.223055 -0.0445282 0
0.191041 -0.0456992 0
0.222703 -0.0342066 0
0.230265 -0.0413968 0
0.2032 -0.0463374 0
0.227111 -0.0388758 0
0.222708 -0.0351267 0
0.20336 -0.0465591 0
0.208163 -0.0461653 0
0.203594 -0.0468887 0
0.180138 -0.0447449 0
0.222711 -0.0362139 0
0.232591 -0.0449948 0
0.235297 -0.0471193 0
0.20393 -0.0473722 0
0.227011 -0.0409633 0
0.222707 -0.0375341 0
0.208881 -0.0475316 0
0.213991 -0.0472571 0
0.204395 -0.0480717 0
0.198549 -0.048307 0
0.226265 -0.0479646 0
0.222694 -0.0391697 0
0.226891 -0.0430142 0
0.205022 -0.0490712 0
0.20956 -0.0489314 0
0.231935 -0.0487005 0
0.222662 -0.0412209 0
0.190371 -0.0488421 0
0.229562 -0.0476658 0
0.226708 -0.0455793 0
0.205839 -0.0504829 0
0.112431 -0.0272738 0
0.149077 -0.0390392 0
0.233036 -0.0520321 0
0.210394 -0.0508117 0
0.194196 -0.0504262 0
0.222596 -0.0438032 0
0.232692 -0.0521807 0
0.228844 -0.0523874 0
0.179372 -0.0478 0
0.226494 -0.0480907 0
0.20686 -0.0524555 0
0.231011 -0.0530571 0
0.201953 -0.0524909 0
0.217823 -0.042248 0
0.202026 -0.0526037 0
0.202099 -0.0527167 0
0.211143 -0.0527657 0
0.184446 -0.049957 0
0.217827 -0.0427487 0
0.218838 -0.053203 0
0.202206 -0.0528838 0
0.22247 -0.0470431 0
0.202312 -0.0530514 0
0.217829 -0.0432468 0
0.202463 -0.0532955 0
0.217831 -0.0438263 0
0.202613 -0.0535408 0
0.226178 -0.0511773 0
0.217832 -0.0444025 0
0.202823 -0.0538926 0
0.217831 -0.0450915 0
0.203031 -0.054247 0
0.189444 -0.0521916 0
0.217829 -0.0457762 0
0.197194 -0.0539381 0
0.229704 -0.0566681 0
0.203314 -0.0547478 0
0.228392 -0.0549982 0
0.217823 -0.0466139 0
0.20806 -0.0551894 0
0.203592 -0.0552537 0
0.212301 -0.055344 0
0.222242 -0.0510675 0
0.217814 -0.0474457 0
0.225811 -0.0541867 0
0.229948 -0.0572433 0
0.199109 -0.0550698 0
0 0 0
0.203961 -0.0559586 0
0.217799 -0.0484796 0
0.178398 -0.0508426 0
0.204319 -0.0566735 0
0.217779 -0.0495053 0
0.217748 -0.0507913 0
0.204779 -0.0576561 0
0.213646 -0.0580763 0
0.225287 -0.0578129 0
0.217709 -0.0520651 0
0.221844 -0.0559918 0
0.205214 -0.0586581 0
0.209308 -0.0589709 0
0.228979 -0.0617696 0
0.18834 -0.0555078 0
0.217649 -0.0536647 0
0.228535 -0.062106 0
0.223984 -0.0613174 0
0.111039 -0.0291724 0
0.205754 -0.0600187 0
0.199998 -0.0592312 0
0.217578 -0.055246 0
0.200128 -0.0594586 0
0.224686 -0.0613347 0
0.200318 -0.059796 0
0.211922 -0.0514832 0
0.215532 -0.0617362 0
0.226542 -0.0633654 0
0.200587 -0.0602895 0
0.206243 -0.0614166 0
0.217471 -0.0572228 0
0.211926 -0.0525877 0
0.195379 -0.0594472 0
0.177225 -0.0538534 0
0.200959 -0.0610013 0
0.211925 -0.053836 0
0.182343 -0.0560255 0
0.221174 -0.0619018 0
0.191344 -0.0591864 0
0.217345 -0.0591719 0
0.201456 -0.0620147 0
0.206799 -0.0632926 0
0.211916 -0.0552851 0
0.226977 -0.0667083 0
0.210438 -0.0641925 0
0.223857 -0.0654853 0
0.211893 -0.0570072 0
0.202092 -0.0634404 0
0.186928 -0.0590319 0
0.217468 -0.0657747 0
0.21716 -0.061585 0
0.207249 -0.0652284 0
0.14627 -0.0443727 0
0.211848 -0.0590905 0
0.216945 -0.0639571 0
0.202863 -0.0654246 0
0.0600154 -0.0150329 0
0.222926 -0.0694987 0
0.211765 -0.0616379 0
0.175855 -0.0568376 0
0.207684 -0.0677571 0
0.22009 -0.0688374 0
0.216637 -0.066853 0
0.22401 -0.0716403 0
0.197492 -0.065747 0
0.197551 -0.0658619 0
0.197609 -0.0659771 0
0.197695 -0.0661473 0
0.218966 -0.0710193 0
0.197781 -0.0663181 0
0.203713 -0.0681578 0
0.223729 -0.072581 0
0.197903 -0.0665665 0
0.211619 -0.064764 0
0.198024 -0.0668159 0
0.198194 -0.0671732 0
0.19289 -0.0654041 0
0.185343 -0.0625043 0
0.205652 -0.0607777 0
0.207968 -0.0703456 0
0.19836 -0.0675327 0
0.109272 -0.0308323 0
0.216284 -0.0696895 0
0.205655 -0.0613873 0
0.211686 -0.0714624 0
0.198588 -0.0680396 0
0.205656 -0.061995 0
0.221651 -0.0741035 0
0.198808 -0.0685508 0
0.205656 -0.0626707 0
0.205653 -0.063344 0
0.1991 -0.0692606 0
0.211373 -0.0685872 0
0.205648 -0.064112 0
0.19422 -0.0677854 0
0.199378 -0.0699784 0
0.20564 -0.0648769 0
0.204525 -0.071874 0
0.21579 -0.0730933 0
0.179519 -0.0620458 0
0.205628 -0.0657707 0
0.174313 -0.0597741 0
0.219467 -0.0763166 0
0.208139 -0.0736603 0
0.199734 -0.0709598 0
0.205612 -0.0666601 0
0.218396 -0.076762 0
0.200064 -0.0719553 0
0.205588 -0.0677205 0
0.220203 -0.0785447 0
0 0 0
0.205559 -0.0687748 0
0.210966 -0.0732188 0
0.21523 -0.0764126 0
0.200465 -0.073295 0
0.205517 -0.0700502 0
0.183405 -0.0661681 0
0.208137 -0.077043 0
0.205467 -0.0713168 0
0.200822 -0.0746569 0
0.186904 -0.0684826 0
0.205117 -0.076834 0
0.205395 -0.0728615 0
0.194179 -0.0726691 0
0.194289 -0.0728987 0
0.194448 -0.0732388 0
0.189948 -0.0711674 0
0.214465 -0.0803173 0
0.201216 -0.0764616 0