# vtk DataFile Version 3.0
File generated from DClib
ASCII

DATASET UNSTRUCTURED_GRID
POINTS 1909 float
50 0 0 
48.75 0 0 
50 1.66667 0 
47.5 0 0 
50 3.33333 0 
46.25 0 0 
50 5 0 
45 0 0 
43.75 0 0 
50 6.66667 0 
43 2 0 
42.5 0 0 
50 8.33333 0 
43 4.66667 0 
41.25 0 0 
41.075 2 0 
50 10 0 
40 0 0 
43 7.33333 0 
39.15 2 0 
38.75 0 0 
43 10 0 
37.5 0 0 
37.225 2 0 
36.25 0 0 
36 4 0 
35.3 2 0 
36 5 0 
35 0 0 
35.325 4 0 
36 6 0 
36 7 0 
34.65 4 0 
36 8 0 
33.75 0 0 
33.975 4 0 
36 9 0 
33.375 2 0 
33.3 4 0 
36 10 0 
32.5 0 0 
32.625 4 0 
33 6 0 
31.95 4 0 
33 7.45455 0 
31.45 2 0 
31.25 0 0 
31.95 6 0 
33 8.79545 0 
31.275 4 0 
33 10 0 
30.6 4 0 
30 0 0 
30.9 6 0 
29.925 4 0 
29.525 2 0 
29.85 6 0 
29.25 4 0 
28.75 0 0 
30 8 0 
30 8.45455 0 
28.575 4 0 
29.625 8 0 
30 8.90909 0 
28.8 6 0 
30 9.25 0 
29.782 8.90909 0 
30 9.59091 0 
29.9487 9.59091 0 
29.25 8 0 
29.7462 9.25 0 
30 9.79545 0 
29.897 9.59091 0 
29.564 8.90909 0 
29.9547 9.79545 0 
29.3462 8.45455 0 
29.84 9.59091 0 
30 10 0 
29.8975 9.79545 0 
29.9882 10 0 
29.9902 10.0098 0 
29.7827 9.59091 0 
29.9765 10 0 
29.9804 10.0196 0 
29.9667 10.0098 0 
29.9591 10 0 
29.9686 10.0196 0 
29.9659 10.0341 0 
29.9569 10.0196 0 
29.9418 10 0 
29.9395 10.0196 0 
29.9515 10.0485 0 
29.932 10.0098 0 
29.9424 10.0341 0 
29.8241 9.79545 0 
29.7181 9.59091 0 
29.9166 10 0 
29.9397 10.0485 0 
29.9222 10.0196 0 
29.9279 10.0485 0 
29.9305 10.0695 0 
29.8914 10 0 
29.9077 10.0341 0 
27.9 4 0 
29.897 10.0196 0 
29.9106 10.0485 0 
29.8817 10.0098 0 
29.907 10.0695 0 
29.8933 10.0485 0 
29.9095 10.0905 0 
29.8719 10.0196 0 
27.6 2 0 
29.8556 10 0 
29.8978 10.0905 0 
29.6531 9.59091 0 
29.3437 8.90909 0 
27.5 0 0 
29.8681 10.0485 0 
29.886 10.0905 0 
29.8574 10.0341 0 
29.4839 9.25 0 
29.8723 10.0695 0 
29.7289 9.79545 0 
29.836 10.0196 0 
29.8687 10.0905 0 
29.8197 10 0 
29.8797 10.1203 0 
29.843 10.0485 0 
29.8513 10.0905 0 
29.81 10.0098 0 
29.8561 10.1203 0 
29.8002 10.0196 0 
29.8221 10.0695 0 
29.8072 10.0485 0 
29.8262 10.0905 0 
29.5782 9.59091 0 
29.8498 10.1502 0 
29.7695 10 0 
29.7858 10.0341 0 
29.838 10.1502 0 
29.8215 10.1203 0 
29.8011 10.0905 0 
29.8262 10.1502 0 
29.7714 10.0485 0 
28.875 8 0 
29.75 10.0196 0 
29.8089 10.1502 0 
29.7654 10.0905 0 
29.7193 10 0 
29.7916 10.1502 0 
29.7505 10.0695 0 
29.8079 10.1921 0 
29.7713 10.1203 0 
29.7096 10.0098 0 
29.6047 9.79545 0 
29.503 9.59091 0 
29.7213 10.0485 0 
29.7665 10.1502 0 
29.6999 10.0196 0 
29.7844 10.1921 0 
29.7296 10.0905 0 
29.6856 10.0341 0 
29.7414 10.1502 0 
29.7497 10.1921 0 
29.6503 10 0 
29.7661 10.2339 0 
29.6712 10.0485 0 
29.6999 10.1203 0 
29.7543 10.2339 0 
29.6796 10.0905 0 
29.7057 10.1502 0 
29.7425 10.2339 0 
29.1235 8.90909 0 
29.6309 10.0196 0 
29.6504 10.0695 0 
29.4146 9.59091 0 
29.7252 10.2339 0 
29.6996 10.1921 0 
29.6701 10.1502 0 
29.7079 10.2339 0 
29.6296 10.0905 0 
29.5813 10 0 
29.6023 10.0485 0 
29.5716 10.0098 0 
29.6828 10.2339 0 
29.7086 10.2914 0 
29.2101 9.25 0 
29.562 10.0196 0 
29.6201 10.1502 0 
29.6578 10.2339 0 
29.4428 9.79545 0 
29.5999 10.1203 0 
29.6849 10.2914 0 
29.6283 10.1921 0 
29.5477 10.0341 0 
29.3259 9.59091 0 
29.5608 10.0905 0 
29.5335 10.0485 0 
29.6221 10.2339 0 
29.6503 10.2914 0 
29.5702 10.1502 0 
29.4881 10 0 
29.5128 10.0695 0 
29.6511 10.3489 0 
29.5866 10.2339 0 
29.6392 10.3489 0 
29.4689 10.0196 0 
29.6002 10.2914 0 
29.6273 10.3489 0 
29.4921 10.0905 0 
29.61 10.3489 0 
29.5286 10.1921 0 
29.5016 10.1502 0 
29.5368 10.2339 0 
29.5926 10.3489 0 
29.4405 10.0485 0 
29.2199 9.59091 0 
29.4626 10.1203 0 
29.3949 10 0 
28.9 8.90909 0 
29.5676 10.3489 0 
29.5291 10.2914 0 
29.3853 10.0098 0 
28.6923 8.45455 0 
29.487 10.2339 0 
29.5426 10.3489 0 
29.3758 10.0196 0 
29.5734 10.4266 0 
29.4331 10.1502 0 
29.3993 10.0905 0 
28.5 8 0 
29.3617 10.0341 0 
29.5496 10.4266 0 
29.5071 10.3489 0 
29.2327 9.79545 0 
29.3475 10.0485 0 
29.1136 9.59091 0 
29.4187 10.2339 0 
29.5148 10.4266 0 
29.4716 10.3489 0 
29.3918 10.1921 0 
29.3271 10.0695 0 
29.4298 10.2914 0 
29.2714 10 0 
29.3406 10.1502 0 
28.9208 9.25 0 
29.3066 10.0905 0 
29.4648 10.4266 0 
29.422 10.3489 0 
29.4958 10.5042 0 
29.2524 10.0196 0 
27.75 6 0 
29.3504 10.2339 0 
29.4837 10.5042 0 
29.4718 10.5042 0 
29.2774 10.1203 0 
29.4543 10.5042 0 
29.3724 10.3489 0 
29.2244 10.0485 0 
29.4369 10.5042 0 
29.3938 10.4266 0 
28.9853 9.59091 0 
29.2481 10.1502 0 
28.6766 8.90909 0 
29.4119 10.5042 0 
29.2934 10.2914 0 
27.225 4 0 
29.148 10 0 
29.2582 10.2339 0 
29.1837 10.0905 0 
29.3869 10.5042 0 
29.1385 10.0098 0 
29.3044 10.3489 0 
29.1291 10.0196 0 
29.2072 10.1921 0 
29.3514 10.5042 0 
29.1152 10.0341 0 
29.3929 10.6071 0 
29.2949 10.4266 0 
29.1013 10.0485 0 
29.3686 10.6071 0 
29.316 10.5042 0 
29.2364 10.3489 0 
28.9623 9.79545 0 
29.1257 10.1502 0 
29.1662 10.2339 0 
29.0811 10.0695 0 
28.8566 9.59091 0 
29.3336 10.6071 0 
29.2666 10.5042 0 
29.0609 10.0905 0 
28.9875 10 0 
29.2835 10.6071 0 
29.1448 10.3489 0 
29.0321 10.1203 0 
29.2173 10.5042 0 
29.1098 10.2914 0 
28.125 8 0 
28.9688 10.0196 0 
29.1594 10.4266 0 
28.611 9.25 0 
29.29 10.71 0 
28.4486 8.90909 0 
29.0443 10.2339 0 
29.0033 10.1502 0 
29.2777 10.71 0 
28.9413 10.0485 0 
29.2128 10.6071 0 
29.2655 10.71 0 
29.1497 10.5042 0 
29.2478 10.71 0 
28.7003 9.59091 0 
29.0533 10.3489 0 
29.2303 10.71 0 
28.9629 10.1921 0 
28.9013 10.0905 0 
29.2051 10.71 0 
29.0822 10.5042 0 
29.1801 10.71 0 
28.827 10 0 
29.1144 10.6071 0 
28.8177 10.0098 0 
28.9225 10.2339 0 
28.8085 10.0196 0 
29.1447 10.71 0 
28.7949 10.0341 0 
28.8443 10.1502 0 
28.977 10.4266 0 
28.9322 10.3489 0 
29.1094 10.71 0 
28.7813 10.0485 0 
28.9912 10.5042 0 
29.1562 10.8438 0 
28.5436 9.59091 0 
28.7615 10.0695 0 
28.8669 10.2914 0 
29.1313 10.8438 0 
28.6184 9.79545 0 
29.0602 10.71 0 
28.2207 8.90909 0 
28.7418 10.0905 0 
28.0378 8.45455 0 
28.9798 10.6071 0 
29.0958 10.8438 0 
29.0112 10.71 0 
28.9005 10.5042 0 
28.7136 10.1203 0 
28.7644 10.2339 0 
28.8113 10.3489 0 
29.0454 10.8438 0 
28.6223 10 0 
28.6854 10.1502 0 
28.2746 9.25 0 
28.9441 10.71 0 
28.6042 10.0196 0 
27.75 8 0 
28.9747 10.8438 0 
28.6459 10.1921 0 
28.5773 10.0485 0 
29.0225 10.9775 0 
28.3532 9.59091 0 
28.7804 10.5042 0 
28.736 10.4266 0 
28.8772 10.71 0 
29.0097 10.9775 0 
28.9971 10.9775 0 
28.799 10.6071 0 
28.9791 10.9775 0 
28.5384 10.0905 0 
28.6064 10.2339 0 
28.6543 10.3489 0 
28.9611 10.9775 0 
28.8769 10.8438 0 
27.9867 8.90909 0 
26.25 0 0 
28.9358 10.9775 0 
28.7871 10.71 0 
28.9106 10.9775 0 
28.6607 10.5042 0 
28.4177 10 0 
26.55 4 0 
28.552 10.2914 0 
28.483 10.1502 0 
28.4087 10.0098 0 
28.8751 10.9775 0 
28.3998 10.0196 0 
28.3866 10.0341 0 
28.8399 10.9775 0 
28.6974 10.71 0 
28.3735 10.0485 0 
28.1625 9.59091 0 
28.7436 10.8438 0 
28.4976 10.3489 0 
28.3543 10.0695 0 
28.791 10.9775 0 
28.4052 10.2339 0 
28.3352 10.0905 0 
28.8519 11.1481 0 
28.1869 9.79545 0 
28.5607 10.6071 0 
28.5053 10.5042 0 
28.7423 10.9775 0 
28.8258 11.1481 0 
28.308 10.1203 0 
28.5787 10.71 0 
27.904 9.25 0 
28.7893 11.1481 0 
28.424 10.4266 0 
27.7528 8.90909 0 
28.2807 10.1502 0 
28.6758 10.9775 0 
27.375 8 0 
28.7383 11.1481 0 
28.1619 10 0 
28.5649 10.8438 0 
28.2425 10.1921 0 
28.6096 10.9775 0 
28.1444 10.0196 0 
28.298 10.3489 0 
28.4605 10.71 0 
26.7 6 0 
27.9315 9.59091 0 
28.3503 10.5042 0 
28.6676 11.1481 0 
28.1187 10.0485 0 
28.2042 10.2339 0 
28.5207 10.9775 0 
28.0813 10.0905 0 
28.6814 11.3186 0 
27.3818 8.45455 0 
28.6679 11.3186 0 
28.1516 10.2914 0 
28.5703 11.1481 0 
28.6544 11.3186 0 
28.6358 11.3186 0 
27.5109 8.90909 0 
28.3072 10.71 0 
28.6173 11.3186 0 
28.2524 10.6071 0 
28.4322 10.9775 0 
28.028 10.1502 0 
28.5915 11.3186 0 
28.0989 10.3489 0 
28.33 10.8438 0 
28.5658 11.3186 0 
28.153 10.5042 0 
27.9061 10 0 
27.8975 10.0098 0 
28.5303 11.3186 0 
28.4384 11.1481 0 
27.7002 9.59091 0 
27.889 10.0196 0 
27.8765 10.0341 0 
28.4949 11.3186 0 
28.3154 10.9775 0 
27.9532 10.2339 0 
27.8639 10.0485 0 
28.0276 10.4266 0 
28.1544 10.71 0 
27.8457 10.0695 0 
27.4909 9.25 0 
28.4463 11.3186 0 
27 8 0 
27.8275 10.0905 0 
28.3979 11.3186 0 
27.8015 10.1203 0 
27.6542 9.79545 0 
25.675 2 0 
28.1991 10.9775 0 
27.2691 8.90909 0 
27.9563 10.5042 0 
28.4682 11.5318 0 
28.2625 11.1481 0 
27.7755 10.1502 0 
28.3322 11.3186 0 
27.8502 10.3489 0 
28.4401 11.5318 0 
25.875 4 0 
27.7391 10.1921 0 
28.4019 11.5318 0 
28.0268 10.8438 0 
28.2668 11.3186 0 
27.9602 10.71 0 
28.3498 11.5318 0 
27.4223 9.59091 0 
27.7026 10.2339 0 
27.5927 10 0 
28.0486 10.9775 0 
27.8616 10.6071 0 
27.5762 10.0196 0 
28.1794 11.3186 0 
28.2786 11.5318 0 
27.5519 10.0485 0 
27.6524 10.2914 0 
28.0319 11.1481 0 
27.7108 10.5042 0 
27.5167 10.0905 0 
27.0169 8.90909 0 
28.0924 11.3186 0 
27.6021 10.3489 0 
27.8988 10.9775 0 
28.1818 11.5318 0 
27.7667 10.71 0 
26.625 8 0 
28.255 11.745 0 
27.4664 10.1502 0 
28.2402 11.745 0 
28.2256 11.745 0 
28.2059 11.745 0 
27.978 11.3186 0 
26.7234 8.45455 0 
27.0259 9.25 0 
27.5342 10.4266 0 
28.1863 11.745 0 
27.1442 9.59091 0 
28.0516 11.5318 0 
28.1598 11.745 0 
27.3959 10.2339 0 
28.1334 11.745 0 
27.2793 10 0 
27.2714 10.0098 0 
27.2635 10.0196 0 
27.7086 10.9775 0 
27.6431 10.8438 0 
28.0975 11.745 0 
27.8643 11.3186 0 
27.4661 10.5042 0 
27.2518 10.0341 0 
27.2401 10.0485 0 
28.0617 11.745 0 
26.7648 8.90909 0 
27.5255 10.71 0 
27.7353 11.1481 0 
27.2231 10.0695 0 
28.0133 11.745 0 
27.2061 10.0905 0 
27.8791 11.5318 0 
27.2986 10.3489 0 
27.1818 10.1203 0 
27.9651 11.745 0 
27.3758 10.6071 0 
27.0077 9.79545 0 
27.7174 11.3186 0 
27.1576 10.1502 0 
25 0 0 
27.5193 10.9775 0 
27.9003 11.745 0 
27.1236 10.1921 0 
26.25 8 0 
27.9939 12.0061 0 
25.65 6 0 
27.8359 11.745 0 
26.8136 9.59091 0 
27.0896 10.2339 0 
27.9626 12.0061 0 
27.2853 10.71 0 
25.2 4 0 
27.5713 11.3186 0 
27.9218 12.0061 0 
26.4998 8.90909 0 
27.167 10.5042 0 
27.6541 11.5318 0 
27.0427 10.2914 0 
27.7503 11.745 0 
26.9033 10 0 
27.8677 12.0061 0 
26.8882 10.0196 0 
26.8659 10.0485 0 
26.9958 10.3489 0 
27.2836 10.9775 0 
27.6652 11.745 0 
27.3609 11.1481 0 
27.7955 12.0061 0 
26.499 9.25 0 
[...]
POINT_DATA 1909
SCALARS phi float 1
LOOKUP_TABLE default
VECTORS Displacement float
0 0 0
0 0 0
0 -0.00600444 0
0 0 0
0 -0.0082995 0
0 0 0
0 -0.0071904 0
0 0 0
0 0 0
0 -0.00302234 0
0.0170358 -0.00520192 0
0 0 0
0 0.00394515 0
0.0330339 -0.0030945 0
0 0 0
0.0231263 -0.00509271 0
0 0.0128748 0
0 0 0
0.043832 0.007323 0
0.0298233 -0.0051654 0
0 0 0
0.0495846 0.0238857 0
0 0 0
0.0369876 -0.00554627 0
0 0 0
0.0700805 -0.00340822 0
0.0442237 -0.00624045 0
0.0825472 0.000859618 0
0 0 0
0.0751866 -0.00376384 0
0.091466 0.00659858 0
0.097214 0.0134539 0
0.0802066 -0.00420965 0
0.100675 0.0206795 0
0 0 0
0.0852023 -0.00492367 0
0.103412 0.0282813 0
0.051071 -0.00720457 0
0.0900604 -0.00574281 0
0.106003 0.0373108 0
0 0 0
0.094688 -0.00673415 0
0.120969 0.00351321 0
0.0990857 -0.00782658 0
0.132498 0.0158462 0
0.0570981 -0.00838302 0
0 0 0
0.131184 -0.000493202 0
0.137474 0.0326736 0
0.103161 -0.00904388 0
0.138505 0.0567664 0
0.106912 -0.0103517 0
0 0 0
0.139823 -0.00468543 0
0.110296 -0.011751 0
0.0619466 -0.00973025 0
0.147122 -0.00924703 0
0.113287 -0.0132344 0
0 0 0
0.172186 0.00176462 0
0.177174 0.00568735 0
0.115892 -0.0147818 0
0.175779 -0.00133111 0
0.182066 0.0106728 0
0.153045 -0.0141568 0
0.185766 0.0177544 0
0.184677 0.00759021 0
0.189601 0.0278375 0
0.190403 0.0254691 0
0.178948 -0.00450782 0
0.189232 0.0123498 0
0.190536 0.0347888 0
0.191178 0.0234872 0
0.187026 0.00484006 0
0.19131 0.0323975 0
0.183834 -0.00086672 0
0.19194 0.0214906 0
0.190843 0.0426977 0
0.192333 0.0296184 0
0.191196 0.0428388 0
0.313657 0.0870556 0
0.192647 0.0197254 0
0.191599 0.0427995 0
0.411829 0.121254 0
0.311457 0.0858319 0
0.192224 0.0426898 0
0.40964 0.120007 0
0.416582 0.120825 0
0.407105 0.1185 0
0.192905 0.0424359 0
0.402753 0.116377 0
0.416742 0.119586 0
0.307438 0.0833914 0
0.414572 0.118311 0
0.193718 0.0266005 0
0.193365 0.0179369 0
0.193911 0.0417357 0
0.416538 0.118482 0
0.398236 0.11405 0
0.416372 0.117479 0
0.417081 0.118165 0
0.194952 0.0409847 0
0.409912 0.114906 0
0.118057 -0.0164174 0
0.391673 0.110592 0
0.415864 0.116234 0
0.301647 0.079036 0
0.416831 0.116343 0
0.415192 0.114894 0
0.416349 0.116656 0
0.385198 0.107092 0
0.0653282 -0.0112181 0
0.196372 0.0394616 0
0.416286 0.115783 0
0.194023 0.0162928 0
0.189315 0.00228575 0
0 0 0
0.413702 0.112847 0
0.416203 0.114899 0
0.401837 0.109527 0
0.192327 0.00818269 0
0.416315 0.113667 0
0.195533 0.0233794 0
0.376471 0.101911 0
0.416051 0.113532 0
0.197764 0.0380015 0
0.415386 0.114621 0
0.411607 0.110577 0
0.415885 0.112114 0
0.293941 0.0722056 0
0.41524 0.112751 0
0.367894 0.0968658 0
0.414703 0.109337 0
0.407982 0.106995 0
0.415571 0.109978 0
0.194724 0.0145652 0
0.414183 0.112404 0
0.19953 0.0356798 0
0.389359 0.100988 0
0.414101 0.111429 0
0.414989 0.109844 0
0.415207 0.107793 0
0.414017 0.110434 0
0.403603 0.103256 0
0.181972 -0.00770126 0
0.356505 0.0898129 0
0.41388 0.108946 0
0.414388 0.104671 0
0.201151 0.0335096 0
0.413738 0.10744 0
0.410315 0.102648 0
0.412467 0.109153 0
0.414554 0.105485 0
0.283647 0.0627423 0
0.197766 0.0199262 0
0.195373 0.0129268 0
0.396812 0.0977915 0
0.413519 0.105238 0
0.345397 0.0830976 0
0.412306 0.107099 0
0.413223 0.10151 0
0.370984 0.0887878 0
0.413294 0.103043 0
0.41205 0.104051 0
0.203089 0.0306323 0
0.41072 0.105783 0
0.389286 0.0923158 0
0.413582 0.0992694 0
0.410627 0.104732 0
0.410868 0.097102 0
0.412962 0.0999348 0
0.410533 0.103686 0
0.191427 -0.000217436 0
0.330815 0.0742901 0
0.400919 0.0929568 0
0.196121 0.0111674 0
0.410394 0.102152 0
0.411653 0.0996763 0
0.412631 0.0968977 0
0.410254 0.100632 0
0.407691 0.092663 0
0.204739 0.0279357 0
0.378261 0.0848408 0
0.269937 0.0509026 0
0.410054 0.0984541 0
0.408396 0.101108 0
0.195146 0.00427421 0
0.316824 0.0660279 0
0.412012 0.0927688 0
0.409854 0.0963124 0
0.200335 0.0161877 0
0.410725 0.0908456 0
0.408218 0.099027 0
0.411077 0.0936655 0
0.345076 0.0728716 0
0.196847 0.00947809 0
0.402089 0.0866709 0
0.366571 0.0774828 0
0.409567 0.0933292 0
0.407952 0.096027 0
0.411221 0.0887832 0
0.206617 0.0247838 0
0.383703 0.0797239 0
0.406141 0.0964956 0
0.409281 0.0904293 0
0.406048 0.0954651 0
0.299095 0.0559137 0
0.407564 0.0918217 0
0.405955 0.0944469 0
0.395315 0.0806592 0
0.405819 0.0929707 0
0.410202 0.0857748 0
0.409434 0.0835502 0
0.408889 0.0864981 0
0.405683 0.0915187 0
0.350062 0.0680353 0
0.197728 0.00761192 0
0.403054 0.0798368 0
0.208106 0.0217992 0
0.19345 -0.00271117 0
0.405489 0.0894549 0
0.407017 0.0861236 0
0.252766 0.0373734 0
0.18924 -0.00725485 0
0.408512 0.0827394 0
0.405297 0.0874384 0
0.282997 0.0467527 0
0.40329 0.0904549 0
0.406868 0.0784298 0
0.384428 0.0728354 0
0.184624 -0.0110011 0
0.310652 0.0537926 0
0.403115 0.0884785 0
0.405028 0.0846413 0
0.203086 0.0120165 0
0.333098 0.0588397 0
0.198632 0.00582665 0
0.407934 0.0777878 0
0.402858 0.0856673 0
0.404764 0.081932 0
0.407982 0.0758128 0
0.35519 0.0626225 0
0.406284 0.0787075 0
0.209738 0.0184809 0
0.401788 0.0718682 0
0.197787 0.000354879 0
0.371981 0.0649479 0
0.402488 0.0817644 0
0.404399 0.0782768 0
0.400493 0.0846367 0
0.264492 0.03643 0
0.15752 -0.0193441 0
0.407266 0.0731071 0
0.400411 0.083678 0
0.400329 0.0827334 0
0.386103 0.0656131 0
0.40021 0.0813735 0
0.404042 0.0747656 0
0.310728 0.0477609 0
0.400091 0.0800385 0
0.401968 0.0765054 0
0.199727 0.00378294 0
0.39519 0.0653199 0
0.195326 -0.00521166 0
0.39992 0.0781502 0
0.405338 0.0694095 0
0.119822 -0.0180868 0
0.210988 0.0153158 0
0.405699 0.0671344 0
0.353256 0.055127 0
0.399749 0.0763063 0
0.234889 0.0235073 0
0.403565 0.0701434 0
0.249958 0.0279142 0
0.401002 0.0635523 0
0.399507 0.0737521 0
0.271032 0.0334132 0
0.397061 0.0773237 0
0.401258 0.0696403 0
0.289614 0.037592 0
0.396905 0.0755101 0
0.399264 0.0712733 0
0.403109 0.0657524 0
0.205811 0.00712457 0
0.383651 0.0571434 0
0.403328 0.0613996 0
0.313021 0.0420963 0
0.200848 0.00181135 0
0.396678 0.0729531 0
0.398926 0.0679185 0
0.332878 0.0453112 0
0.212303 0.0117082 0
0.396351 0.0694153 0
0.402488 0.0601059 0
0.353653 0.0476033 0
0.39859 0.0646876 0
0.40329 0.0581062 0
0.187039 -0.0142877 0
0.236009 0.019086 0
0.40033 0.0609868 0
0.200259 -0.00375631 0
0.393685 0.0703676 0
0.19705 -0.00779308 0
0.398235 0.054312 0
0.369505 0.0487797 0
0.393616 0.0694942 0
0.265908 0.0262709 0
0.395889 0.0646411 0
0.393548 0.0686336 0
0.39813 0.0604319 0
0.393448 0.0674047 0
0.202188 -0.000497271 0
0.401812 0.0548328 0
0.393349 0.0661972 0
0.382908 0.0484354 0
0.306031 0.0338696 0
0.393205 0.0644972 0
0.397679 0.0563733 0
0.39306 0.0628339 0
0.213336 0.0082727 0
0.395248 0.0583927 0
0.221672 0.011 0
0.391236 0.0473624 0
0.227416 0.0125673 0
0.392852 0.0605345 0
0.237596 0.0151773 0
0.347382 0.0389217 0
0.399218 0.0505158 0
0.40025 0.0483083 0
0.392644 0.0582996 0
0.248061 0.0175282 0
0.397098 0.0511876 0
0.389541 0.0618453 0
0.203513 -0.0027525 0
0.264924 0.0210138 0
0.396244 0.0449123 0
0.389412 0.0601908 0
0.208329 0.00120415 0
0.39235 0.0552797 0
0.198641 -0.0103684 0
0.281235 0.023817 0
0.193543 -0.0137728 0
0.39439 0.0505119 0
0.389226 0.0578858 0
0.392057 0.0523722 0
0.396559 0.0463238 0
0.303179 0.026938 0
0.378062 0.0391969 0
0.397834 0.0422228 0
0.38896 0.05472 0
0.214343 0.00418821 0
0.322673 0.0290596 0
0.202581 -0.00815368 0
0.391656 0.048549 0
0.221111 0.00601271 0
0.189072 -0.0176354 0
0.388586 0.0504729 0
0.344155 0.0303619 0
0.23287 0.00851443 0
0.385559 0.0538029 0
0.205049 -0.00542968 0
0.395889 0.0403062 0
0.397129 0.0384525 0
0.391263 0.0449167 0
0.3855 0.0530063 0
0.385442 0.0522225 0
0.393324 0.041021 0
0.385359 0.0511205 0
0.255857 0.0127002 0
0.36093 0.0307741 0
0.392339 0.0350654 0
0.385276 0.0500396 0
0.388073 0.044951 0
0.200086 -0.0130249 0
0 0 0
0.385157 0.0485351 0
0.390754 0.0402963 0
0.385038 0.0470669 0
0.395194 0.0348212 0
0.215176 0.000301258 0
0.121121 -0.0198633 0
0.37541 0.0297456 0
0.292069 0.0178868 0
0.216704 0.000664699 0
0.384871 0.0450549 0
0.218337 0.00102287 0
0.221065 0.00159061 0
0.384706 0.0431068 0
0.390279 0.0359789 0
0.224564 0.00231958 0
0.206498 -0.00807196 0
0.387401 0.0380514 0
0.384411 0.0282181 0
0.231152 0.00364693 0
0.38448 0.0404942 0
0.33452 0.0214932 0
0.23897 0.00507735 0
0.380751 0.0442532 0
0.210612 -0.00589762 0
0.392206 0.0302105 0
0.393611 0.0283336 0
0.38426 0.0379918 0
0.380654 0.0427645 0
0.2522 0.00726641 0
0.389725 0.0306925 0
0.204801 -0.0128795 0
0.380519 0.0407428 0
0.389654 0.0254053 0
0.201384 -0.0156781 0
0.266247 0.00912018 0
0.383972 0.0347253 0
0.190832 -0.0209718 0
0.380331 0.0380199 0
0.215854 -0.00437378 0
0.386588 0.0298291 0
0.286601 0.0112525 0
0.383699 0.0316383 0
0.217284 -0.00423319 0
0.368672 0.0207702 0
0.389271 0.0258417 0
0.160493 -0.0247525 0
0.208106 -0.0112231 0
0.391162 0.02248 0
0.380074 0.034425 0
0.220205 -0.00392438 0
0.305873 0.0125358 0
0.383357 0.0277282 0
0.227339 -0.00303319 0
0.376031 0.0354241 0
0.196788 -0.0203592 0
0.375991 0.034725 0
0.328648 0.0130649 0
0.379734 0.0298143 0
0.375952 0.0340396 0
0.3759 0.0330984 0
0.202532 -0.0184244 0
0.388705 0.0200595 0
0.375848 0.0321788 0
0.390205 0.0185567 0
0.383048 0.0240816 0
0.243674 -0.00110507 0
0.375778 0.0309215 0
0.347327 0.0128035 0
0.385716 0.0204807 0
0.375709 0.0296993 0
0.385069 0.0157811 0
0.216445 -0.0088275 0
0.216808 -0.00886037 0
0.375617 0.0280473 0
0.37931 0.0241024 0
0.209548 -0.0143491 0
0.217168 -0.00889831 0
0.217799 -0.0089256 0
0.375527 0.0264524 0
0.382676 0.0195869 0
0.274324 0.00177296 0
0.218502 -0.00894231 0
0.364332 0.01113 0
0.388047 0.0147797 0
0.219955 -0.00885824 0
0.206893 -0.018011 0
0.37541 0.0243327 0
0.192222 -0.0243265 0
0.221824 -0.00869454 0
0.3753 0.0223023 0
0.225595 -0.00826091 0
0.212872 -0.0141069 0
0.0669979 -0.0128247 0
0.38235 0.0153955 0
0.203527 -0.0211581 0
0.375336 0.00915268 0
0.370807 0.0255633 0
0.378818 0.0172651 0
0.23064 -0.00764303 0
0.375158 0.0196575 0
0.316862 0.00386979 0
0.370752 0.0242804 0
0.122003 -0.0216347 0
0.239845 -0.0065915 0
0.370674 0.0225951 0
0.384813 0.0100122 0
0.375028 0.0171407 0
0.386459 0.0084276 0
0.37057 0.0203772 0
0.211024 -0.0180718 0
0.250886 -0.00558588 0
0.216963 -0.014016 0
0.382 0.0102755 0
0.381834 0.0058529 0
0.217492 -0.0141611 0
0.374861 0.0139255 0
0.370434 0.017484 0
0.218327 -0.0143746 0
0.268286 -0.00442449 0
0.378264 0.00921968 0
0.355981 0.00211251 0
0.21992 -0.0146326 0
0.204402 -0.0239868 0
0.374703 0.0108592 0
0.286269 -0.00398338 0
0.381602 0.0053885 0
0.370262 0.0137703 0
0.38379 0.00250023 0
0.193334 -0.0276955 0
0.365429 0.016577 0
0.223794 -0.0148016 0
0.365417 0.0159829 0
0.365404 0.0153995 0
0.365391 0.0146238 0
0.374506 0.00698289 0
0.198985 -0.0269853 0
0.20872 -0.0236865 0
0.309345 -0.00436102 0
0.365377 0.0138633 0
0.212258 -0.0217671 0
0.37005 0.0090874 0
0.36536 0.0128444 0
0.233955 -0.014644 0
0.365344 0.0118479 0
0.217452 -0.0189998 0
0.217645 -0.0190907 0
0.217851 -0.0191787 0
0.38095 -0.000595225 0
0.382652 -0.00193011 0
0.365321 0.0105145 0
0.374289 0.0032311 0
0.329635 -0.00560504 0
0.218144 -0.0193141 0
0.218443 -0.0194495 0
0.365298 0.00921351 0
0.205113 -0.0268028 0
0.37626 -0.0043001 0
0.377552 -0.000390143 0
0.218913 -0.0196348 0
0.365264 0.00748676 0
0.21937 -0.0198289 0
0.369791 0.00323791 0
0.256939 -0.0141718 0
0.220162 -0.0200665 0
0.365229 0.00580276 0
0.349534 -0.00837869 0
0.215205 -0.0233611 0
0.373991 -0.00149108 0
0.221056 -0.0202944 0
0 0 0
0.380145 -0.00630713 0
0.365182 0.00358908 0
0.222976 -0.0204766 0
0.194105 -0.0310636 0
0.359556 0.00678223 0
0.161942 -0.0303391 0
0.365128 0.00142293 0
0.213356 -0.0261221 0
0.225587 -0.0205741 0
0.359539 0.00563588 0
0.363231 -0.0112905 0
0.122401 -0.0235454 0
0.373648 -0.00608145 0
0.359514 0.00416989 0
0.205705 -0.0297427 0
0.295751 -0.0144013 0
0.369424 -0.00406942 0
0.230952 -0.0205259 0
0.365046 -0.00139935 0
0.218269 -0.024586 0
0.359479 0.00226797 0
0.218514 -0.0248024 0
0.218943 -0.0251052 0
0.238296 -0.0203939 0
0.378106 -0.0132492 0
0.364951 -0.00417279 0
0.376384 -0.0118282 0
0.359431 -0.000212564 0
0.21009 -0.0300353 0
0.219621 -0.0255399 0
0.371813 -0.0156052 0
0.373143 -0.0117476 0
0.251029 -0.0203442 0
0.359368 -0.00344836 0
0.364801 -0.00774728 0
0.220671 -0.0261724 0
0.338645 -0.0179668 0
0.206121 -0.0326731 0
0.200217 -0.0336079 0
0.214126 -0.0304365 0
0.36882 -0.0130904 0
0.265938 -0.0208144 0
0.194609 -0.0344386 0
0.353542 -0.00248768 0
0.222649 -0.0270574 0
0.364626 -0.0112525 0
0.353544 -0.00306001 0
0.35927 -0.00765445 0
0.374698 -0.0197319 0
0.353545 -0.00362574 0
0.372568 -0.0172327 0
0.353548 -0.004348 0
0.353549 -0.00506223 0
0.353551 -0.00599226 0
0.218835 -0.0300406 0
0.287006 -0.0222728 0
0.218975 -0.0301493 0
0.219113 -0.0302588 0
0.353552 -0.00691244 0
0.219303 -0.0304231 0
0.227866 -0.0282233 0
0.364367 -0.0156906 0
0.219491 -0.0305886 0
0.353549 -0.0081249 0
0.219755 -0.0308316 0
0.359101 -0.0130728 0
0.353544 -0.00932504 0
0.220019 -0.0310769 0
0.220386 -0.0314298 0
0.206392 -0.0357614 0
0.30734 -0.0248026 0
0.353529 -0.0109097 0
0.373494 -0.0249839 0
0.371649 -0.0238596 0
0.220753 -0.0317865 0
0.364066 -0.0200193 0
0.35351 -0.0124782 0
0.36432 -0.0265095 0
0.21682 -0.0338674 0
0.221277 -0.0322836 0
0.367788 -0.0239324 0
0.242111 -0.0299024 0
0.353475 -0.014541 0
0.214658 -0.0354248 0
0.221789 -0.032791 0
0.194807 -0.0378057 0
0.358803 -0.0199323 0
0.122365 -0.0253933 0
0.353433 -0.0165796 0
0.329346 -0.0291004 0
0.210772 -0.0371579 0
0.222678 -0.033442 0
0.363622 -0.0253739 0
0.346576 -0.0130736 0
0.370532 -0.0302005 0
0.353366 -0.0192362 0
0.34658 -0.0142664 0
0.223751 -0.0340779 0
0.20648 -0.0388391 0
0.346582 -0.0157424 0
0.219336 -0.0362222 0
0.219544 -0.0364434 0
0.353285 -0.0218524 0
0.345931 -0.0335082 0
0.272461 -0.0329354 0
0.346579 -0.0176135 0
0.219857 -0.0367722 0
0.226275 -0.0347719 0
0.363111 -0.0305762 0
0.220313 -0.0372548 0
0.200529 -0.0402366 0
0.358281 -0.0284106 0
0.346566 -0.0200204 0
0.353159 -0.0252108 0
0.229876 -0.0354349 0
0.220963 -0.0379529 0
0.161872 -0.0360762 0
0.367627 -0.0376862 0
0.214772 -0.0403629 0
0.346533 -0.0231326 0
0.36612 -0.0366326 0
0.194754 -0.0411788 0
0.353011 -0.0285054 0
0.357726 -0.0393515 0
0.221844 -0.03896 0
0.237245 -0.0363385 0
0.206388 -0.0421043 0
0.36238 -0.0368573 0
0.346462 -0.0271434 0
0 0 0
0.352785 -0.0326579 0
0.315177 -0.0390519 0
0.339558 -0.0234616 0
0.223112 -0.0403876 0
0.247314 -0.0375697 0
0.339562 -0.0240969 0
0.339565 -0.0247277 0
0.0667437 -0.0145042 0
0.219236 -0.0423771 0
0.339568 -0.0254977 0
0.357394 -0.0386276 0
0.219348 -0.0424958 0
0.21946 -0.0426147 0
0.33957 -0.0262622 0
0.362594 -0.0445052 0
0.219616 -0.0427913 0
0.346322 -0.0322576 0
0.352521 -0.0367157 0
0.339571 -0.0272198 0
0.219771 -0.0429687 0
0.36156 -0.0429198 0
0.219988 -0.043228 0
0.33957 -0.0281699 0
0.220202 -0.0434893 0
0.263413 -0.0399575 0
0.339566 -0.0293814 0
0.225567 -0.0424222 0
0.220498 -0.0438666 0
0.210521 -0.0451138 0
0.121825 -0.0274183 0
0.339559 -0.0305824 0
0.206107 -0.0453543 0
0.220789 -0.044248 0
0.194426 -0.0445429 0
0.339546 -0.0321283 0
0.221185 -0.0447904 0
0.352133 -0.0417293 0
0.214469 -0.0459837 0
0.21676 -0.0457676 0
0.339529 -0.0336582 0
0.22157 -0.0453401 0
0.346062 -0.038679 0
0.281288 -0.0436195 0
0.339499 -0.0356311 0
0.361973 -0.0507369 0
0.222082 -0.0461042 0
0.360297 -0.0500638 0
0.199951 -0.0468863 0
0.232175 -0.045634 0
0.347299 -0.0502247 0
0.339461 -0.0375799 0
0.22257 -0.0468808 0
0.351687 -0.0466048 0
0.355919 -0.0505779 0
0.339401 -0.04008 0
0.223229 -0.0479202 0
0.302922 -0.0495266 0
0.205607 -0.0488161 0
0.331296 -0.0354742 0
0.345602 -0.0465864 0
0.218601 -0.0492551 0
0.339328 -0.0425441 0
0.331302 -0.0368384 0
0.218767 -0.0494892 0
0.223868 -0.0489744 0
0.219015 -0.0498374 0
0.193859 -0.0479065 0
0.331304 -0.0384507 0
0.351047 -0.0524888 0
0.358785 -0.0568518 0
0.219373 -0.0503478 0
0.339215 -0.045673 0
0.331301 -0.0404085 0
0.224802 -0.0503923 0
0.250629 -0.0512002 0
0.219872 -0.0510852 0
0.21368 -0.0515289 0
0.321424 -0.0560327 0
0.331286 -0.0428343 0
0.339081 -0.0487484 0
0.220552 -0.0521356 0
0.225874 -0.0518519 0
0.350315 -0.0581928 0
0.331251 -0.0458761 0
0.204911 -0.0522556 0
0.344816 -0.0560983 0
0.338879 -0.0525978 0
0.221463 -0.0536124 0
0.120843 -0.0292937 0
0.160298 -0.0419177 0
0.354104 -0.0643894 0
0.228891 -0.0536509 0
0.209041 -0.0539243 0
0.331179 -0.0497052 0
0.353601 -0.0641841 0
0.33704 -0.0642043 0
0.193044 -0.0512519 0
0.338644 -0.0563681 0
0.222648 -0.0556773 0
0.349283 -0.0649142 0
0.217366 -0.0559988 0
0.322882 -0.0473168 0
0.217451 -0.0561204 0
0.217535 -0.0562424 0
0.233532 -0.0556056 0
0.198521 -0.0535481 0
0.322886 -0.0480521 0
0.286085 -0.0604456 0
0.217655 -0.0564224 0
0.331043 -0.0545089 0
0.217775 -0.0566032 0
0.322889 -0.0487835 0
0.217944 -0.0568661 0
0.322891 -0.0496341 0
0.218111 -0.0571304 0
0.338299 -0.0610048 0
0.322892 -0.0504798 0
0.218346 -0.0575097 0
0.322891 -0.0514908 0
0.218578 -0.0578917 0
0.203938 -0.055924 0
0.322888 -0.0524954 0
0.212298 -0.0576936 0
0.345284 -0.0710648 0
0.218897 -0.0584329 0
0.343534 -0.0672664 0
0.322882 -0.0537241 0
0.224063 -0.0585731 0
0.219211 -0.05898 0
0.24298 -0.0585469 0
0.330797 -0.0604768 0
0.322873 -0.0549439 0
0.337901 -0.0655293 0
0.348128 -0.0714069 0
0.214362 -0.0588844 0
0 0 0
0.219627 -0.059747 0
0.322857 -0.0564599 0
0.192001 -0.0545857 0
0.220034 -0.0605266 0
0.322837 -0.0579634 0
0.322804 -0.0598481 0
0.220558 -0.0616075 0
0.255552 -0.0626416 0
0.337337 -0.0709874 0
0.322764 -0.0617145 0
0.330372 -0.0677802 0
0.221047 -0.0627179 0
0.226614 -0.0627401 0
0.346897 -0.0787716 0
0.202766 -0.0595599 0
0.322702 -0.0640581 0
0.346424 -0.0789117 0
0.323041 -0.0745312 0
0.119328 -0.031368 0
0.221643 -0.0642374 0
0.215364 -0.06339 0
0.322628 -0.0663743 0
0.215504 -0.0636334 0
0.336695 -0.0762898 0
0.215711 -0.0639949 0
0.313064 -0.0607561 0
0.273197 -0.0692458 0
0.341525 -0.0800349 0
0.216005 -0.064524 0
0.222133 -0.0657987 0
0.322516 -0.0692694 0
0.313069 -0.0623533 0
0.210395 -0.0637393 0
0.190738 -0.0578867 0
0.216411 -0.0652878 0
0.313068 -0.064158 0
0.196272 -0.0601999 0
0.329664 -0.076551 0
0.206037 -0.0635295 0
0.322385 -0.0721236 0
0.216952 -0.0663763 0
0.222716 -0.0678285 0
0.313059 -0.0662522 0
0.34433 -0.0858488 0
0.234608 -0.0696201 0
0.335817 -0.0825436 0
0.313036 -0.06874 0
0.217639 -0.0679085 0
0.201258 -0.0634268 0
0.291032 -0.0774453 0
0.322193 -0.075657 0
0.223232 -0.0698801 0
0.157251 -0.0477601 0
0.312991 -0.0717483 0
0.321971 -0.0791301 0
0.218453 -0.0700392 0
0.064446 -0.0161509 0
0.334831 -0.0885928 0
0.312907 -0.0754254 0
0.189258 -0.0611608 0
0.223982 -0.0725763 0
0.328521 -0.0868459 0
0.321653 -0.0833709 0
0.336248 -0.0923542 0
0.212734 -0.0705622 0
0.2128 -0.0706864 0
0.212865 -0.0708109 0
0.21296 -0.0709947 0
0.308446 -0.0881355 0
0.213054 -0.071179 0
0.21938 -0.0729529 0
0.338419 -0.0940499 0
0.213189 -0.0714471 0
0.31276 -0.0799361 0
0.213321 -0.0717163 0
0.213508 -0.0721016 0
0.207756 -0.0702883 0
0.199556 -0.0672404 0
0.30298 -0.074073 0
0.22504 -0.0753531 0
0.21369 -0.0724895 0
0.117399 -0.0331825 0
0.321288 -0.0875245 0
0.302983 -0.0749409 0
0.256824 -0.0813689 0
0.21394 -0.0730359 0
0.302984 -0.0758059 0
0.333438 -0.0955182 0
0.214182 -0.0735869 0
0.302985 -0.0767677 0
0.302983 -0.077726 0
0.214505 -0.0743514 0
0.312511 -0.0854512 0
0.302978 -0.078819 0
0.209216 -0.0728611 0
0.214812 -0.0751238 0
0.302971 -0.0799074 0
0.220428 -0.07687 0
0.320777 -0.0925093 0
0.193228 -0.0668074 0
0.30296 -0.0811789 0
0.187588 -0.0643832 0
0.320217 -0.097675 0
0.22865 -0.0789952 0
0.215208 -0.0761795 0
0.302944 -0.0824441 0
0.326735 -0.0986227 0
0.215583 -0.0772465 0
0.302921 -0.0839522 0
0.33189 -0.102263 0
0 0 0
0.302893 -0.0854516 0
0.312097 -0.092132 0
0.320198 -0.0973723 0
0.216031 -0.0786892 0
0.302852 -0.0872651 0
0.197463 -0.0712676 0
0.234511 -0.0833246 0
0.302802 -0.0890659 0
0.216456 -0.0801528 0
0.201277 -0.0737509 0
0.221429 -0.0821308 0
0.302731 -0.091262 0
0.20921 -0.0781915 0
0.209331 -0.0784394 0
0.209506 -0.0788068 0
0.204603 -0.0766367 0
0.319405 -0.103097 0
0.216948 -0.0821085 0
0.326072 -0.107946 0
0.209754 -0.0793431 0
0.302648 -0.0934394 0
0.291112 -0.098642 0
0.185713 -0.0675564 0
0.311431 -0.100108 0