# vtk DataFile Version 3.0
File generated from DClib
ASCII

DATASET UNSTRUCTURED_GRID
POINTS 1909 float
50 0 0 
48.75 0 0 
50 1.66667 0 
47.5 0 0 
50 3.33333 0 
46.25 0 0 
50 5 0 
45 0 0 
43.75 0 0 
50 6.66667 0 
43 2 0 
42.5 0 0 
50 8.33333 0 
43 4.66667 0 
41.25 0 0 
41.075 2 0 
50 10 0 
40 0 0 
43 7.33333 0 
39.15 2 0 
38.75 0 0 
43 10 0 
37.5 0 0 
37.225 2 0 
36.25 0 0 
36 4 0 
35.3 2 0 
36 5 0 
35 0 0 
35.325 4 0 
36 6 0 
36 7 0 
34.65 4 0 
36 8 0 
33.75 0 0 
33.975 4 0 
36 9 0 
33.375 2 0 
33.3 4 0 
36 10 0 
32.5 0 0 
32.625 4 0 
33 6 0 
31.95 4 0 
33 7.45455 0 
31.45 2 0 
31.25 0 0 
31.95 6 0 
33 8.79545 0 
31.275 4 0 
33 10 0 
30.6 4 0 
30 0 0 
30.9 6 0 
29.925 4 0 
29.525 2 0 
29.85 6 0 
29.25 4 0 
28.75 0 0 
30 8 0 
30 8.45455 0 
28.575 4 0 
29.625 8 0 
30 8.90909 0 
28.8 6 0 
30 9.25 0 
29.782 8.90909 0 
30 9.59091 0 
29.9487 9.59091 0 
29.25 8 0 
29.7462 9.25 0 
30 9.79545 0 
29.897 9.59091 0 
29.564 8.90909 0 
29.9547 9.79545 0 
29.3462 8.45455 0 
29.84 9.59091 0 
30 10 0 
29.8975 9.79545 0 
29.9882 10 0 
29.9902 10.0098 0 
29.7827 9.59091 0 
29.9765 10 0 
29.9804 10.0196 0 
29.9667 10.0098 0 
29.9591 10 0 
29.9686 10.0196 0 
29.9659 10.0341 0 
29.9569 10.0196 0 
29.9418 10 0 
29.9395 10.0196 0 
29.9515 10.0485 0 
29.932 10.0098 0 
29.9424 10.0341 0 
29.8241 9.79545 0 
29.7181 9.59091 0 
29.9166 10 0 
29.9397 10.0485 0 
29.9222 10.0196 0 
29.9279 10.0485 0 
29.9305 10.0695 0 
29.8914 10 0 
29.9077 10.0341 0 
27.9 4 0 
29.897 10.0196 0 
29.9106 10.0485 0 
29.8817 10.0098 0 
29.907 10.0695 0 
29.8933 10.0485 0 
29.9095 10.0905 0 
29.8719 10.0196 0 
27.6 2 0 
29.8556 10 0 
29.8978 10.0905 0 
29.6531 9.59091 0 
29.3437 8.90909 0 
27.5 0 0 
29.8681 10.0485 0 
29.886 10.0905 0 
29.8574 10.0341 0 
29.4839 9.25 0 
29.8723 10.0695 0 
29.7289 9.79545 0 
29.836 10.0196 0 
29.8687 10.0905 0 
29.8197 10 0 
29.8797 10.1203 0 
29.843 10.0485 0 
29.8513 10.0905 0 
29.81 10.0098 0 
29.8561 10.1203 0 
29.8002 10.0196 0 
29.8221 10.0695 0 
29.8072 10.0485 0 
29.8262 10.0905 0 
29.5782 9.59091 0 
29.8498 10.1502 0 
29.7695 10 0 
29.7858 10.0341 0 
29.838 10.1502 0 
29.8215 10.1203 0 
29.8011 10.0905 0 
29.8262 10.1502 0 
29.7714 10.0485 0 
28.875 8 0 
29.75 10.0196 0 
29.8089 10.1502 0 
29.7654 10.0905 0 
29.7193 10 0 
29.7916 10.1502 0 
29.7505 10.0695 0 
29.8079 10.1921 0 
29.7713 10.1203 0 
29.7096 10.0098 0 
29.6047 9.79545 0 
29.503 9.59091 0 
29.7213 10.0485 0 
29.7665 10.1502 0 
29.6999 10.0196 0 
29.7844 10.1921 0 
29.7296 10.0905 0 
29.6856 10.0341 0 
29.7414 10.1502 0 
29.7497 10.1921 0 
29.6503 10 0 
29.7661 10.2339 0 
29.6712 10.0485 0 
29.6999 10.1203 0 
29.7543 10.2339 0 
29.6796 10.0905 0 
29.7057 10.1502 0 
29.7425 10.2339 0 
29.1235 8.90909 0 
29.6309 10.0196 0 
29.6504 10.0695 0 
29.4146 9.59091 0 
29.7252 10.2339 0 
29.6996 10.1921 0 
29.6701 10.1502 0 
29.7079 10.2339 0 
29.6296 10.0905 0 
29.5813 10 0 
29.6023 10.0485 0 
29.5716 10.0098 0 
29.6828 10.2339 0 
29.7086 10.2914 0 
29.2101 9.25 0 
29.562 10.0196 0 
29.6201 10.1502 0 
29.6578 10.2339 0 
29.4428 9.79545 0 
29.5999 10.1203 0 
29.6849 10.2914 0 
29.6283 10.1921 0 
29.5477 10.0341 0 
29.3259 9.59091 0 
29.5608 10.0905 0 
29.5335 10.0485 0 
29.6221 10.2339 0 
29.6503 10.2914 0 
29.5702 10.1502 0 
29.4881 10 0 
29.5128 10.0695 0 
29.6511 10.3489 0 
29.5866 10.2339 0 
29.6392 10.3489 0 
29.4689 10.0196 0 
29.6002 10.2914 0 
29.6273 10.3489 0 
29.4921 10.0905 0 
29.61 10.3489 0 
29.5286 10.1921 0 
29.5016 10.1502 0 
29.5368 10.2339 0 
29.5926 10.3489 0 
29.4405 10.0485 0 
29.2199 9.59091 0 
29.4626 10.1203 0 
29.3949 10 0 
28.9 8.90909 0 
29.5676 10.3489 0 
29.5291 10.2914 0 
29.3853 10.0098 0 
28.6923 8.45455 0 
29.487 10.2339 0 
29.5426 10.3489 0 
29.3758 10.0196 0 
29.5734 10.4266 0 
29.4331 10.1502 0 
29.3993 10.0905 0 
28.5 8 0 
29.3617 10.0341 0 
29.5496 10.4266 0 
29.5071 10.3489 0 
29.2327 9.79545 0 
29.3475 10.0485 0 
29.1136 9.59091 0 
29.4187 10.2339 0 
29.5148 10.4266 0 
29.4716 10.3489 0 
29.3918 10.1921 0 
29.3271 10.0695 0 
29.4298 10.2914 0 
29.2714 10 0 
29.3406 10.1502 0 
28.9208 9.25 0 
29.3066 10.0905 0 
29.4648 10.4266 0 
29.422 10.3489 0 
29.4958 10.5042 0 
29.2524 10.0196 0 
27.75 6 0 
29.3504 10.2339 0 
29.4837 10.5042 0 
29.4718 10.5042 0 
29.2774 10.1203 0 
29.4543 10.5042 0 
29.3724 10.3489 0 
29.2244 10.0485 0 
29.4369 10.5042 0 
29.3938 10.4266 0 
28.9853 9.59091 0 
29.2481 10.1502 0 
28.6766 8.90909 0 
29.4119 10.5042 0 
29.2934 10.2914 0 
27.225 4 0 
29.148 10 0 
29.2582 10.2339 0 
29.1837 10.0905 0 
29.3869 10.5042 0 
29.1385 10.0098 0 
29.3044 10.3489 0 
29.1291 10.0196 0 
29.2072 10.1921 0 
29.3514 10.5042 0 
29.1152 10.0341 0 
29.3929 10.6071 0 
29.2949 10.4266 0 
29.1013 10.0485 0 
29.3686 10.6071 0 
29.316 10.5042 0 
29.2364 10.3489 0 
28.9623 9.79545 0 
29.1257 10.1502 0 
29.1662 10.2339 0 
29.0811 10.0695 0 
28.8566 9.59091 0 
29.3336 10.6071 0 
29.2666 10.5042 0 
29.0609 10.0905 0 
28.9875 10 0 
29.2835 10.6071 0 
29.1448 10.3489 0 
29.0321 10.1203 0 
29.2173 10.5042 0 
29.1098 10.2914 0 
28.125 8 0 
28.9688 10.0196 0 
29.1594 10.4266 0 
28.611 9.25 0 
29.29 10.71 0 
28.4486 8.90909 0 
29.0443 10.2339 0 
29.0033 10.1502 0 
29.2777 10.71 0 
28.9413 10.0485 0 
29.2128 10.6071 0 
29.2655 10.71 0 
29.1497 10.5042 0 
29.2478 10.71 0 
28.7003 9.59091 0 
29.0533 10.3489 0 
29.2303 10.71 0 
28.9629 10.1921 0 
28.9013 10.0905 0 
29.2051 10.71 0 
29.0822 10.5042 0 
29.1801 10.71 0 
28.827 10 0 
29.1144 10.6071 0 
28.8177 10.0098 0 
28.9225 10.2339 0 
28.8085 10.0196 0 
29.1447 10.71 0 
28.7949 10.0341 0 
28.8443 10.1502 0 
28.977 10.4266 0 
28.9322 10.3489 0 
29.1094 10.71 0 
28.7813 10.0485 0 
28.9912 10.5042 0 
29.1562 10.8438 0 
28.5436 9.59091 0 
28.7615 10.0695 0 
28.8669 10.2914 0 
29.1313 10.8438 0 
28.6184 9.79545 0 
29.0602 10.71 0 
28.2207 8.90909 0 
28.7418 10.0905 0 
28.0378 8.45455 0 
28.9798 10.6071 0 
29.0958 10.8438 0 
29.0112 10.71 0 
28.9005 10.5042 0 
28.7136 10.1203 0 
28.7644 10.2339 0 
28.8113 10.3489 0 
29.0454 10.8438 0 
28.6223 10 0 
28.6854 10.1502 0 
28.2746 9.25 0 
28.9441 10.71 0 
28.6042 10.0196 0 
27.75 8 0 
28.9747 10.8438 0 
28.6459 10.1921 0 
28.5773 10.0485 0 
29.0225 10.9775 0 
28.3532 9.59091 0 
28.7804 10.5042 0 
28.736 10.4266 0 
28.8772 10.71 0 
29.0097 10.9775 0 
28.9971 10.9775 0 
28.799 10.6071 0 
28.9791 10.9775 0 
28.5384 10.0905 0 
28.6064 10.2339 0 
28.6543 10.3489 0 
28.9611 10.9775 0 
28.8769 10.8438 0 
27.9867 8.90909 0 
26.25 0 0 
28.9358 10.9775 0 
28.7871 10.71 0 
28.9106 10.9775 0 
28.6607 10.5042 0 
28.4177 10 0 
26.55 4 0 
28.552 10.2914 0 
28.483 10.1502 0 
28.4087 10.0098 0 
28.8751 10.9775 0 
28.3998 10.0196 0 
28.3866 10.0341 0 
28.8399 10.9775 0 
28.6974 10.71 0 
28.3735 10.0485 0 
28.1625 9.59091 0 
28.7436 10.8438 0 
28.4976 10.3489 0 
28.3543 10.0695 0 
28.791 10.9775 0 
28.4052 10.2339 0 
28.3352 10.0905 0 
28.8519 11.1481 0 
28.1869 9.79545 0 
28.5607 10.6071 0 
28.5053 10.5042 0 
28.7423 10.9775 0 
28.8258 11.1481 0 
28.308 10.1203 0 
28.5787 10.71 0 
27.904 9.25 0 
28.7893 11.1481 0 
28.424 10.4266 0 
27.7528 8.90909 0 
28.2807 10.1502 0 
28.6758 10.9775 0 
27.375 8 0 
28.7383 11.1481 0 
28.1619 10 0 
28.5649 10.8438 0 
28.2425 10.1921 0 
28.6096 10.9775 0 
28.1444 10.0196 0 
28.298 10.3489 0 
28.4605 10.71 0 
26.7 6 0 
27.9315 9.59091 0 
28.3503 10.5042 0 
28.6676 11.1481 0 
28.1187 10.0485 0 
28.2042 10.2339 0 
28.5207 10.9775 0 
28.0813 10.0905 0 
28.6814 11.3186 0 
27.3818 8.45455 0 
28.6679 11.3186 0 
28.1516 10.2914 0 
28.5703 11.1481 0 
28.6544 11.3186 0 
28.6358 11.3186 0 
27.5109 8.90909 0 
28.3072 10.71 0 
28.6173 11.3186 0 
28.2524 10.6071 0 
28.4322 10.9775 0 
28.028 10.1502 0 
28.5915 11.3186 0 
28.0989 10.3489 0 
28.33 10.8438 0 
28.5658 11.3186 0 
28.153 10.5042 0 
27.9061 10 0 
27.8975 10.0098 0 
28.5303 11.3186 0 
28.4384 11.1481 0 
27.7002 9.59091 0 
27.889 10.0196 0 
27.8765 10.0341 0 
28.4949 11.3186 0 
28.3154 10.9775 0 
27.9532 10.2339 0 
27.8639 10.0485 0 
28.0276 10.4266 0 
28.1544 10.71 0 
27.8457 10.0695 0 
27.4909 9.25 0 
28.4463 11.3186 0 
27 8 0 
27.8275 10.0905 0 
28.3979 11.3186 0 
27.8015 10.1203 0 
27.6542 9.79545 0 
25.675 2 0 
28.1991 10.9775 0 
27.2691 8.90909 0 
27.9563 10.5042 0 
28.4682 11.5318 0 
28.2625 11.1481 0 
27.7755 10.1502 0 
28.3322 11.3186 0 
27.8502 10.3489 0 
28.4401 11.5318 0 
25.875 4 0 
27.7391 10.1921 0 
28.4019 11.5318 0 
28.0268 10.8438 0 
28.2668 11.3186 0 
27.9602 10.71 0 
28.3498 11.5318 0 
27.4223 9.59091 0 
27.7026 10.2339 0 
27.5927 10 0 
28.0486 10.9775 0 
27.8616 10.6071 0 
27.5762 10.0196 0 
28.1794 11.3186 0 
28.2786 11.5318 0 
27.5519 10.0485 0 
27.6524 10.2914 0 
28.0319 11.1481 0 
27.7108 10.5042 0 
27.5167 10.0905 0 
27.0169 8.90909 0 
28.0924 11.3186 0 
27.6021 10.3489 0 
27.8988 10.9775 0 
28.1818 11.5318 0 
27.7667 10.71 0 
26.625 8 0 
28.255 11.745 0 
27.4664 10.1502 0 
28.2402 11.745 0 
28.2256 11.745 0 
28.2059 11.745 0 
27.978 11.3186 0 
26.7234 8.45455 0 
27.0259 9.25 0 
27.5342 10.4266 0 
28.1863 11.745 0 
27.1442 9.59091 0 
28.0516 11.5318 0 
28.1598 11.745 0 
27.3959 10.2339 0 
28.1334 11.745 0 
27.2793 10 0 
27.2714 10.0098 0 
27.2635 10.0196 0 
27.7086 10.9775 0 
27.6431 10.8438 0 
28.0975 11.745 0 
27.8643 11.3186 0 
27.4661 10.5042 0 
27.2518 10.0341 0 
27.2401 10.0485 0 
28.0617 11.745 0 
26.7648 8.90909 0 
27.5255 10.71 0 
27.7353 11.1481 0 
27.2231 10.0695 0 
28.0133 11.745 0 
27.2061 10.0905 0 
27.8791 11.5318 0 
27.2986 10.3489 0 
27.1818 10.1203 0 
27.9651 11.745 0 
27.3758 10.6071 0 
27.0077 9.79545 0 
27.7174 11.3186 0 
27.1576 10.1502 0 
25 0 0 
27.5193 10.9775 0 
27.9003 11.745 0 
27.1236 10.1921 0 
26.25 8 0 
27.9939 12.0061 0 
25.65 6 0 
27.8359 11.745 0 
26.8136 9.59091 0 
27.0896 10.2339 0 
27.9626 12.0061 0 
27.2853 10.71 0 
25.2 4 0 
27.5713 11.3186 0 
27.9218 12.0061 0 
26.4998 8.90909 0 
27.167 10.5042 0 
27.6541 11.5318 0 
27.0427 10.2914 0 
27.7503 11.745 0 
26.9033 10 0 
27.8677 12.0061 0 
26.8882 10.0196 0 
26.8659 10.0485 0 
26.9958 10.3489 0 
27.2836 10.9775 0 
27.6652 11.745 0 
27.3609 11.1481 0 
27.7955 12.0061 0 
26.499 9.25 0 
[...]
POINT_DATA 1909
SCALARS phi float 1
LOOKUP_TABLE default
VECTORS Displacement float
0 0 0
0 0 0
0 -0.00105185 0
0 0 0
0 -0.000445463 0
0 0 0
0 0.00163853 0
0 0 0
0 0 0
0 0.0050583 0
0.00963374 -0.000442553 0
0 0 0
0 0.00968318 0
0.0183843 0.00331738 0
0 0 0
0.0129397 -0.00044378 0
0 0.0152736 0
0 0 0
0.0245152 0.0108956 0
0.016437 -0.000515343 0
0 0 0
0.0280574 0.0208815 0
0 0 0
0.0200311 -0.000696732 0
0 0 0
0.0375799 0.00230427 0
0.0235235 -0.000967894 0
0.0448477 0.00514241 0
0 0 0
0.0402697 0.00209781 0
0.0501153 0.0088101 0
0.0537959 0.0130316 0
0.0428009 0.00188191 0
0.0563893 0.0174381 0
0 0 0
0.045284 0.00155754 0
0.0580396 0.0219431 0
0.0267423 -0.00130432 0
0.0476326 0.00121286 0
0.059065 0.0263964 0
0 0 0
0.0498521 0.000813186 0
0.0647812 0.00728915 0
0.0519314 0.000391474 0
0.0717719 0.0141027 0
0.0295604 -0.00169322 0
0 0 0
0.069819 0.00531591 0
0.0752213 0.0219053 0
0.053863 -6.59046e-05 0
0.0756162 0.0300602 0
0.0556401 -0.000545676 0
0 0 0
0.0738114 0.00356091 0
0.0572654 -0.00105277 0
0.0318787 -0.00213513 0
0.0771412 0.00178701 0
0.0587269 -0.00158726 0
0 0 0
0.0909414 0.00776845 0
0.0935851 0.00967369 0
0.0600329 -0.0021449 0
0.0925471 0.00649597 0
0.0962197 0.0118432 0
0.0798771 -6.62316e-05 0
0.097787 0.0139788 0
0.097451 0.0107442 0
0.098996 0.0166355 0
0.0993752 0.0158403 0
0.0939448 0.00526264 0
0.0993008 0.0122117 0
0.0992177 0.0191083 0
0.0997412 0.0152324 0
0.0985482 0.00966101 0
0.0996042 0.0181166 0
0.0965762 0.00702339 0
0.100104 0.0146815 0
0.098986 0.022047 0
0.100127 0.017184 0
0.0991607 0.0220912 0
0.111688 0.0266117 0
0.100447 0.0141832 0
0.0993563 0.0220692 0
0.117917 0.028583 0
0.111355 0.0263105 0
0.0996463 0.0219135 0
0.117579 0.0283406 0
0.118499 0.0283997 0
0.117192 0.0280202 0
0.0999491 0.0217463 0
0.116585 0.0275155 0
0.118472 0.0280936 0
0.110869 0.0255583 0
0.118225 0.0278272 0
0.10083 0.0163193 0
0.100812 0.0136846 0
0.100367 0.0213222 0
0.118455 0.0278172 0
0.115967 0.0269872 0
0.118436 0.0275429 0
0.118505 0.0276738 0
0.100774 0.0209042 0
0.117565 0.0269345 0
0.0611665 -0.00273988 0
0.115215 0.0261659 0
0.118366 0.0271498 0
0.110363 0.0242288 0
0.118458 0.027124 0
0.118252 0.0267279 0
0.118428 0.0272181 0
0.114548 0.0253872 0
0.0335982 -0.00263938 0
0.101316 0.0202368 0
0.118403 0.0269365 0
0.101171 0.0132362 0
0.0995603 0.00863748 0
0 0 0
0.118015 0.0260844 0
0.118374 0.0266487 0
0.116535 0.0255194 0
0.100632 0.0106791 0
0.118369 0.0262669 0
0.1017 0.0154324 0
0.113808 0.024294 0
0.118328 0.0262107 0
0.101817 0.0196103 0
0.118376 0.0265625 0
0.117682 0.0254253 0
0.118287 0.0257704 0
0.109902 0.0224041 0
0.118317 0.0259667 0
0.113191 0.0233066 0
0.118114 0.0249908 0
0.11717 0.0244706 0
0.118222 0.0251388 0
0.1016 0.0127829 0
0.118339 0.025883 0
0.102458 0.018776 0
0.115225 0.0235467 0
0.118304 0.0255808 0
0.118229 0.0250905 0
0.118161 0.0245247 0
0.11827 0.0252807 0
0.116607 0.0235621 0
0.0952735 0.00405021 0
0.112519 0.0220386 0
0.11822 0.0248453 0
0.118038 0.0236993 0
0.103032 0.0180057 0
0.11817 0.0244207 0
0.1175 0.0232779 0
0.118307 0.0249321 0
0.118113 0.0238861 0
0.109532 0.0202473 0
0.10271 0.0144545 0
0.102028 0.0123551 0
0.115855 0.0223632 0
0.118103 0.0238252 0
0.112022 0.0209313 0
0.118244 0.024348 0
0.117875 0.0229186 0
0.113792 0.0211901 0
0.11804 0.0232595 0
0.118153 0.0235288 0
0.103733 0.017089 0
0.118302 0.0240152 0
0.11515 0.0212775 0
0.117951 0.0223539 0
0.11827 0.0237326 0
0.117575 0.0219092 0
0.11796 0.0224994 0
0.118238 0.0234575 0
0.100479 0.00766113 0
0.111502 0.0196064 0
0.11642 0.0211827 0
0.10254 0.0118876 0
0.118194 0.0230642 0
0.118031 0.0224391 0
0.117895 0.0217985 0
0.118151 0.0226862 0
0.117195 0.0209739 0
0.104347 0.0162432 0
0.114314 0.0199431 0
0.10932 0.0179518 0
0.118093 0.0221637 0
0.118327 0.0228293 0
0.101941 0.00932925 0
0.111178 0.018464 0
0.117805 0.0209011 0
0.118039 0.0216696 0
0.103847 0.0133427 0
0.117612 0.0205402 0
0.118273 0.0223191 0
0.117883 0.021078 0
0.112515 0.0186716 0
0.10305 0.0114316 0
0.116619 0.0198047 0
0.113644 0.0187777 0
0.117967 0.0210101 0
0.118198 0.021618 0
0.117717 0.0200856 0
0.105076 0.0153097 0
0.114997 0.0188164 0
0.118343 0.0217346 0
0.117899 0.0203956 0
0.118321 0.0214996 0
0.110838 0.0171646 0
0.118098 0.0206916 0
0.1183 0.0212712 0
0.116011 0.0187433 0
0.11827 0.0209456 0
0.117729 0.0194661 0
0.117543 0.0190765 0
0.117813 0.0195982 0
0.118241 0.0206319 0
0.11294 0.0174261 0
0.103642 0.010899 0
0.116859 0.0184847 0
0.105721 0.014446 0
0.10136 0.00671931 0
0.118201 0.0201966 0
0.117971 0.0195172 0
0.109302 0.0156653 0
0.0990222 0.00462659 0
0.117736 0.0188698 0
0.118163 0.0197811 0
0.110665 0.0160363 0
0.118424 0.0204077 0
0.117301 0.0181584 0
0.115243 0.0174666 0
0.0964705 0.00282346 0
0.111618 0.0161791 0
0.118386 0.0199906 0
0.118109 0.0192209 0
0.105121 0.0120517 0
0.112459 0.0162664 0
0.104226 0.0103705 0
0.117644 0.0179595 0
0.118333 0.019415 0
0.118058 0.0186935 0
0.117512 0.0176499 0
0.113602 0.0163442 0
0.117817 0.0181007 0
0.106501 0.0135287 0
0.116898 0.0170605 0
0.103254 0.0080038 0
0.114583 0.0163499 0
0.118264 0.0186448 0
0.117989 0.0180086 0
0.118513 0.019198 0
0.110506 0.0147977 0
0.0820095 -0.00201698 0
0.117572 0.0171508 0
0.118498 0.019007 0
0.118484 0.0188204 0
0.115666 0.0162528 0
0.118463 0.0185548 0
0.117923 0.0173789 0
0.11203 0.0149841 0
0.118442 0.0182973 0
0.118177 0.0176592 0
0.104891 0.00973118 0
0.116433 0.0160732 0
0.102198 0.00579005 0
0.118413 0.0179398 0
0.117657 0.0165065 0
0.0621367 -0.0033551 0
0.107213 0.0126533 0
0.117453 0.0161942 0
0.113893 0.015064 0
0.118384 0.0175981 0
0.109591 0.0134485 0
0.117843 0.0165979 0
0.110532 0.0136951 0
0.117022 0.0157216 0
0.118346 0.017138 0
0.111211 0.0137904 0
0.118681 0.0177611 0
0.118074 0.0164736 0
0.111815 0.0138494 0
0.118659 0.017424 0
0.118311 0.0167085 0
0.117775 0.0159023 0
0.106571 0.0105272 0
0.115829 0.0149007 0
0.117316 0.0153404 0
0.112659 0.0139081 0
0.105539 0.00909037 0
0.118629 0.0169621 0
0.118267 0.0161518 0
0.113438 0.0139295 0
0.108099 0.0116811 0
0.118591 0.0163507 0
0.117704 0.015059 0
0.114441 0.0139057 0
0.118232 0.0156449 0
0.117499 0.0148062 0
0.0975793 0.00157669 0
0.110644 0.0124531 0
0.117965 0.015138 0
0.104561 0.00660666 0
0.118832 0.0164635 0
0.103006 0.0048456 0
0.117073 0.0143117 0
0.115291 0.0138202 0
0.118824 0.0163135 0
0.111717 0.0125567 0
0.118543 0.0155804 0
0.118817 0.016168 0
0.118192 0.0150086 0
0.118808 0.0159627 0
0.106267 0.0083061 0
0.117643 0.0142909 0
0.1188 0.0157658 0
0.116164 0.0136051 0
0.113077 0.0125907 0
0.118789 0.0154951 0
0.11816 0.014421 0
0.11878 0.0152387 0
0.108921 0.010716 0
0.118491 0.0146519 0
0.110284 0.0111468 0
0.116761 0.0133268 0
0.110877 0.0112803 0
0.11877 0.0148957 0
0.111334 0.0113182 0
0.114747 0.0124836 0
0.117856 0.0136189 0
0.117562 0.0133322 0
0.118762 0.0145712 0
0.111755 0.0113367 0
0.118125 0.013679 0
0.119159 0.015026 0
0.10696 0.00751459 0
0.112347 0.0113478 0
0.117222 0.0128775 0
0.119151 0.0147755 0
0.108209 0.0086678 0
0.118756 0.0141453 0
0.103764 0.00389554 0
0.11291 0.0113389 0
0.101019 0.00217991 0
0.118443 0.0135296 0
0.119142 0.0144391 0
0.118751 0.0137363 0
0.118086 0.0129646 0
0.113665 0.0112952 0
0.116354 0.012076 0
0.117474 0.0124062 0
0.119134 0.0139929 0
0.109899 0.00952688 0
0.114371 0.0112205 0
0.105841 0.00507256 0
0.118742 0.0131986 0
0.11122 0.00986295 0
0.098552 0.000312382 0
0.119126 0.0134044 0
0.115237 0.0110627 0
0.111929 0.00987138 0
0.119445 0.0137742 0
0.107739 0.00654527 0
0.118034 0.012044 0
0.117724 0.01177 0
0.118732 0.0126737 0
0.119447 0.0136668 0
0.119449 0.0135614 0
0.118391 0.0121215 0
0.119452 0.0134132 0
0.112872 0.00982365 0
0.115958 0.0108523 0
0.117323 0.0112349 0
0.119455 0.0132674 0
0.11912 0.0126288 0
0.104486 0.00291129 0
0 0 0
0.11946 0.013064 0
0.118718 0.0119807 0
0.119464 0.0128634 0
0.117976 0.0111475 0
0.110789 0.00832655 0
0.0629229 -0.00402307 0
0.116675 0.0104913 0
0.114097 0.00967009 0
0.111317 0.00845138 0
0.119468 0.0125864 0
0.111632 0.00848888 0
0.111921 0.00847644 0
0.119472 0.0123128 0
0.118702 0.0113019 0
0.112197 0.00845597 0
0.108457 0.00556178 0
0.119115 0.0116053 0
0.117142 0.0100793 0
0.112589 0.00841849 0
0.119477 0.0119384 0
0.115565 0.00932137 0
0.112974 0.00837238 0
0.119903 0.0123888 0
0.109941 0.00630753 0
0.118315 0.0103393 0
0.117897 0.0100037 0
0.11948 0.0115685 0
0.119905 0.0121863 0
0.113503 0.00829152 0
0.118681 0.010419 0
0.107067 0.00334624 0
0.119908 0.0119069 0
0.117512 0.00947689 0
0.105143 0.00191225 0
0.114009 0.00819458 0
0.119486 0.011068 0
0.0994091 -0.000972255 0
0.119912 0.0115204 0
0.111754 0.00679744 0
0.11911 0.0102713 0
0.114686 0.00803437 0
0.119492 0.0105746 0
0.112186 0.0068123 0
0.116895 0.00862337 0
0.118659 0.00955356 0
0.0835171 -0.00408957 0
0.109243 0.00435824 0
0.117819 0.00888148 0
0.119921 0.0109889 0
0.112633 0.00674791 0
0.11531 0.00784577 0
0.119499 0.00991917 0
0.113244 0.00662536 0
0.120275 0.0110779 0
0.102639 -0.000323461 0
0.120277 0.0109778 0
0.116054 0.0075414 0
0.119934 0.0102671 0
0.120279 0.0108785 0
0.120281 0.0107408 0
0.105757 0.000865312 0
0.11863 0.00844823 0
0.120284 0.0106041 0
0.118212 0.00811148 0
0.119507 0.00927381 0
0.114093 0.00641683 0
0.120288 0.0104144 0
0.116651 0.00719093 0
0.119105 0.00856434 0
0.120293 0.0102262 0
0.117712 0.00748107 0
0.112564 0.00524904 0
0.112684 0.00522004 0
0.120299 0.009966 0
0.119955 0.00930289 0
0.109935 0.00313413 0
0.112803 0.00519019 0
0.112974 0.00514382 0
0.120305 0.00970796 0
0.119518 0.00843212 0
0.115187 0.00605581 0
0.113145 0.0050956 0
0.117205 0.00665748 0
0.118603 0.00736481 0
0.113391 0.0050233 0
0.108198 0.00137153 0
0.120314 0.00935451 0
0.100132 -0.00227861 0
0.113636 0.00494763 0
0.120324 0.00900424 0
0.11399 0.00483897 0
0.111578 0.00331496 0
0.0345992 -0.00321503 0
0.119529 0.00760387 0
0.106296 -0.00019987 0
0.117612 0.00610318 0
0.120686 0.00950314 0
0.119984 0.0080366 0
0.114336 0.00472199 0
0.120337 0.00853102 0
0.116447 0.00544184 0
0.120688 0.00930031 0
0.0635308 -0.00470531 0
0.114807 0.00454723 0
0.120691 0.00902632 0
0.1191 0.00642214 0
0.120351 0.00806214 0
0.118571 0.00601151 0
0.120697 0.00865249 0
0.110653 0.00164455 0
0.115258 0.00435813 0
0.113341 0.00335979 0
0.119541 0.00654431 0
0.118096 0.00538164 0
0.113531 0.00329062 0
0.120369 0.00743804 0
0.120706 0.00814245 0
0.11381 0.00318375 0
0.115832 0.00407045 0
0.12002 0.00640324 0
0.117505 0.00442781 0
0.11421 0.00301876 0
0.106781 -0.00132651 0
0.120387 0.00681985 0
0.116358 0.00375645 0
0.119553 0.00550292 0
0.12072 0.00745094 0
0.118549 0.00468644 0
0.100739 -0.00361871 0
0.120899 0.00796325 0
0.114769 0.00276327 0
0.120901 0.00785859 0
0.120902 0.00775465 0
0.120905 0.00761478 0
0.120408 0.0060104 0
0.103832 -0.00293239 0
0.109173 -0.000913765 0
0.116936 0.00328295 0
0.120908 0.00747571 0
0.111242 0.000129269 0
0.12074 0.00652274 0
0.120912 0.00728675 0
0.115514 0.00236451 0
0.120916 0.00709868 0
0.113912 0.00142409 0
0.113997 0.00138436 0
0.114081 0.00134416 0
0.119557 0.00419741 0
0.119081 0.00379911 0
0.120921 0.00684243 0
0.120425 0.00520867 0
0.117437 0.00279471 0
0.114203 0.00128394 0
0.114323 0.00122267 0
0.120927 0.00658718 0
0.107184 -0.00247208 0
0.118512 0.00307354 0
0.120047 0.00433643 0
0.114495 0.00113203 0
0.120935 0.00624054 0
0.114664 0.00103913 0
0.120764 0.00529325 0
0.116423 0.00174092 0
0.114901 0.000903164 0
0.120942 0.00589503 0
0.117981 0.00214083 0
0.112886 -0.00042082 0
0.12044 0.00417687 0
0.115133 0.000762736 0
0 0 0
0.119546 0.00291062 0
0.120951 0.00542961 0
0.115447 0.000558911 0
0.101208 -0.00498441 0
0.120975 0.00608662 0
0.0843716 -0.00631019 0
0.120959 0.00496547 0
0.111772 -0.0017003 0
0.11575 0.000346625 0
0.120977 0.00586114 0
0.118458 0.00148268 0
0.0639374 -0.00546217 0
0.120442 0.00315315 0
0.120979 0.00556674 0
0.10752 -0.00369381 0
0.117395 0.000810487 0
0.120781 0.00368869 0
0.116141 4.21247e-05 0
0.120968 0.00434755 0
0.114375 -0.000918629 0
0.120982 0.00517487 0
0.114513 -0.00100546 0
0.114716 -0.0011365 0
0.116506 -0.000275043 0
0.119508 0.00131163 0
0.120973 0.00373097 0
0.120023 0.00175513 0
0.120986 0.00464839 0
0.109901 -0.0035745 0
0.115002 -0.00133268 0
0.118988 0.000612077 0
0.120428 0.00185393 0
0.116957 -0.000720741 0
0.120989 0.00394012 0
0.120975 0.00292142 0
0.115395 -0.00162455 0
0.118386 -0.00048602 0
0.107767 -0.00493379 0
0.104565 -0.00566474 0
0.112123 -0.00355654 0
0.120765 0.00162349 0
0.117365 -0.00118233 0
0.101553 -0.00638614 0
0.120744 0.00416392 0
0.115908 -0.00205627 0
0.12097 0.00211283 0
0.120745 0.00404009 0
0.120989 0.00299175 0
0.119431 -0.000283899 0
0.120746 0.0039168 0
0.120388 0.000558863 0
0.120748 0.00375792 0
0.120749 0.00359957 0
0.120751 0.00339139 0
0.114618 -0.00327081 0
0.117851 -0.00181498 0
0.11468 -0.00331731 0
0.114741 -0.00336413 0
0.120753 0.00318371 0
0.114829 -0.00343373 0
0.116549 -0.00268895 0
0.120952 0.00106669 0
0.114916 -0.003504 0
0.120754 0.00290751 0
0.11504 -0.00360709 0
0.120979 0.001733 0
0.120755 0.00263171 0
0.115163 -0.00371157 0
0.115333 -0.00386282 0
0.10793 -0.00626494 0
0.118277 -0.00247148 0
0.120756 0.00226356 0
0.11987 -0.00146686 0
0.120308 -0.00106731 0
0.115499 -0.00401676 0
0.12092 2.02072e-05 0
0.120755 0.00189563 0
0.119306 -0.00226987 0
0.11351 -0.00499335 0
0.115725 -0.0042367 0
0.120666 -0.00100415 0
0.117302 -0.00360168 0
0.120752 0.00140583 0
0.112324 -0.00575545 0
0.115942 -0.00446142 0
0.101756 -0.00781485 0
0.120943 8.16207e-05 0
0.0641425 -0.00621699 0
0.120747 0.000915959 0
0.118746 -0.00335595 0
0.110255 -0.0066728 0
0.116227 -0.00477813 0
0.120859 -0.0013132 0
0.120137 0.00175937 0
0.120187 -0.00269969 0
0.120736 0.000268737 0
0.120139 0.00147634 0
0.116498 -0.00510324 0
0.107998 -0.00761233 0
0.12014 0.00112234 0
0.114675 -0.00603206 0
0.114777 -0.00612973 0
0.120721 -0.00037898 0
0.11913 -0.00427343 0
0.118109 -0.00489743 0
0.120139 0.000668138 0
0.114925 -0.00627579 0
0.116839 -0.00555525 0
0.120773 -0.00264927 0
0.115135 -0.00649163 0
0.104822 -0.00852056 0
0.120851 -0.00205525 0
0.120136 7.55897e-05 0
0.120694 -0.00122524 0
0.117154 -0.0060218 0
0.115422 -0.00680716 0
0.0845425 -0.00870312 0
0.119996 -0.00472065 0
0.112316 -0.00796813 0
0.120126 -0.000703845 0
0.120409 -0.00431144 0
0.101828 -0.00927612 0
0.120659 -0.00207239 0
0.119501 -0.00548826 0
0.115802 -0.00726403 0
0.117529 -0.00666082 0
0.107963 -0.00906523 0
0.120634 -0.00432346 0
0.120104 -0.00173023 0
0 0 0
0.120602 -0.00316382 0
0.118864 -0.00670815 0
0.119175 -0.000794017 0
0.116279 -0.00791961 0
0.117859 -0.00732234 0
0.119175 -0.000956597 0
0.119176 -0.00111865 0
0.0347395 -0.00385614 0
0.114497 -0.00878257 0
0.119176 -0.00131728 0
0.120654 -0.00477684 0
0.114542 -0.00883344 0
0.114586 -0.00888452 0
0.119176 -0.00151538 0
0.119752 -0.0067527 0
0.114651 -0.0089602 0
0.12006 -0.0030754 0
0.120531 -0.0042562 0
0.119175 -0.00176484 0
0.114716 -0.00903634 0
0.120458 -0.00600207 0
0.114808 -0.00914755 0
0.119173 -0.00201376 0
0.114898 -0.00925972 0
0.118224 -0.00821396 0
0.119171 -0.00233323 0
0.116842 -0.00885201 0
0.115024 -0.00942125 0
0.11009 -0.0102519 0
0.06412 -0.00707361 0
0.119167 -0.00265216 0
0.107827 -0.0105311 0
0.115148 -0.00958471 0
0.101756 -0.0107623 0
0.11916 -0.00306598 0
0.115315 -0.0098168 0
0.120421 -0.0056406 0
0.112079 -0.0105254 0
0.113224 -0.0103653 0
0.119151 -0.00347926 0
0.115477 -0.0100527 0
0.119972 -0.00482162 0
0.118516 -0.00913977 0
0.119137 -0.00401737 0
0.119901 -0.00840093 0
0.11569 -0.010383 0
0.120195 -0.00806234 0
0.104602 -0.0114901 0
0.117447 -0.0101649 0
0.119393 -0.00920177 0
0.11912 -0.00455489 0
0.115891 -0.0107203 0
0.120288 -0.00702488 0
0.120279 -0.00817792 0
0.119093 -0.00525284 0
0.116144 -0.0111864 0
0.118788 -0.0103665 0
0.107568 -0.012114 0
0.117617 -0.00399244 0
0.119811 -0.00705791 0
0.11403 -0.0119312 0
0.119061 -0.00594998 0
0.117619 -0.00437273 0
0.114108 -0.0120362 0
0.116376 -0.0116643 0
0.114219 -0.0121925 0
0.101553 -0.0122752 0
0.117618 -0.00482595 0
0.120091 -0.00874621 0
0.11988 -0.0101224 0
0.114377 -0.0124222 0
0.119011 -0.00684812 0
0.117614 -0.00538147 0
0.116652 -0.0123155 0
0.117997 -0.0119916 0
0.114593 -0.0127554 0
0.111608 -0.0130796 0
0.118951 -0.0116429 0
0.117604 -0.00607756 0
0.118953 -0.00774479 0
0.114876 -0.0132335 0
0.116892 -0.0129864 0
0.11986 -0.0104637 0
0.117583 -0.0069624 0
0.107203 -0.0137043 0
0.119526 -0.00987278 0
0.118866 -0.00888627 0
0.11523 -0.0139126 0
0.0638674 -0.00789083 0
0.0840007 -0.0112831 0
0.119433 -0.0125862 0
0.11715 -0.0138869 0
0.109274 -0.0143198 0
0.117544 -0.00809481 0
0.119631 -0.0123267 0
0.119008 -0.0133037 0
0.101211 -0.0138069 0
0.118764 -0.0100246 0
0.115643 -0.0148679 0
0.119531 -0.0125531 0
0.113296 -0.0150461 0
0.115699 -0.00740965 0
0.11333 -0.0151 0
0.113363 -0.0151541 0
0.117349 -0.0148182 0
0.103921 -0.0145567 0
0.115699 -0.00763091 0
0.11833 -0.0144983 0
0.113412 -0.0152342 0
0.117474 -0.00954381 0
0.113461 -0.0153146 0
0.115699 -0.0078517 0
0.113531 -0.0154318 0
0.115698 -0.008109 0
0.1136 -0.0155497 0
0.118617 -0.0114518 0
0.115696 -0.00836576 0
0.113696 -0.0157191 0
0.115693 -0.00867385 0
0.113789 -0.0158901 0
0.106693 -0.0154197 0
0.115688 -0.00898129 0
0.11083 -0.0159562 0
0.11891 -0.0150332 0
0.113915 -0.016132 0
0.11905 -0.0133423 0
0.115682 -0.00935902 0
0.116074 -0.0161985 0
0.114037 -0.0163768 0
0.117517 -0.0160477 0
0.11735 -0.0113865 0
0.115673 -0.00973592 0
0.118447 -0.0128723 0
0.119153 -0.0146299 0
0.111804 -0.0164491 0
0 0 0
0.114195 -0.0167182 0
0.115661 -0.0102069 0
0.100743 -0.0153585 0
0.114345 -0.0170652 0
0.115646 -0.0106768 0
0.115624 -0.0112698 0
0.114531 -0.0175421 0
0.117591 -0.0173223 0
0.118207 -0.0146208 0
0.115598 -0.0118611 0
0.117141 -0.0137037 0
0.114701 -0.0180287 0
0.116441 -0.0180319 0
0.118584 -0.0172384 0
0.10608 -0.017134 0
0.11556 -0.0126095 0
0.118634 -0.0170949 0
0.118197 -0.0178804 0
0.0633497 -0.00883292 0
0.114899 -0.0186881 0
0.112175 -0.0185139 0
0.115516 -0.0133554 0
0.112235 -0.0186236 0
0.117934 -0.0163562 0
0.112322 -0.0187866 0
0.113024 -0.0115937 0
0.117555 -0.0189743 0
0.118291 -0.0175138 0
0.112444 -0.0190253 0
0.115067 -0.0193637 0
0.115451 -0.0142965 0
0.113024 -0.0121107 0
0.1098 -0.0188077 0
0.100148 -0.0169192 0
0.11261 -0.0193702 0
0.113021 -0.0126984 0
0.102801 -0.0176975 0
0.1168 -0.0165716 0
0.107677 -0.0188495 0
0.115377 -0.0152333 0
0.112826 -0.0198621 0
0.11524 -0.0202656 0
0.113013 -0.0133849 0
0.118045 -0.0195316 0
0.116596 -0.0205248 0
0.117559 -0.0184479 0
0.112997 -0.0142062 0
0.113095 -0.0205555 0
0.105296 -0.018976 0
0.117381 -0.0206876 0
0.115272 -0.0164057 0
0.115363 -0.0211931 0
0.0827205 -0.0140297 0
0.112967 -0.0152078 0
0.115152 -0.0175708 0
0.113402 -0.0215223 0
0.0338948 -0.0045234 0
0.117138 -0.0205155 0
0.112914 -0.0164441 0
0.0994374 -0.0184899 0
0.115447 -0.0224114 0
0.116261 -0.0200513 0
0.114983 -0.0190108 0
0.117266 -0.0223479 0
0.110765 -0.0219084 0
0.110791 -0.0219641 0
0.110817 -0.0220201 0
0.110856 -0.0221027 0
0.116985 -0.0228624 0
0.110894 -0.0221856 0
0.113711 -0.0228554 0
0.117133 -0.0223875 0
0.11095 -0.0223062 0
0.112826 -0.0179784 0
0.111004 -0.0224274 0
0.11108 -0.0226012 0
0.108399 -0.0219307 0
0.104414 -0.0208067 0
0.11002 -0.0160249 0
0.115451 -0.0236675 0
0.111154 -0.0227761 0
0.0625852 -0.00967151 0
0.114793 -0.0204386 0
0.11002 -0.0163237 0
0.116313 -0.0238578 0
0.111254 -0.0230229 0
0.110019 -0.0166221 0
0.116575 -0.0229497 0
0.11135 -0.0232721 0
0.110017 -0.0169542 0
0.110013 -0.0172858 0
0.111474 -0.0236184 0
0.11268 -0.01988 0
0.110007 -0.0176649 0
0.109043 -0.0230805 0
0.11159 -0.023969 0
0.11 -0.0180434 0
0.113949 -0.0246727 0
0.114531 -0.0221747 0
0.10127 -0.0208831 0
0.109989 -0.0184866 0
0.0986207 -0.0200561 0
0.116396 -0.0251132 0
0.115344 -0.0252876 0
0.111735 -0.024449 0
0.109977 -0.018929 0
0.115442 -0.0241739 0
0.111864 -0.0249366 0
0.109959 -0.019458 0
0.11595 -0.0253437 0
0 0 0
0.109939 -0.0199856 0
0.112447 -0.0222194 0
0.114239 -0.0238908 0
0.112013 -0.0255941 0
0.10991 -0.0206261 0
0.103333 -0.0227589 0
0.115115 -0.0269592 0
0.109877 -0.0212644 0
0.112137 -0.0262644 0
0.105193 -0.0237663 0
0.113983 -0.0271171 0
0.10983 -0.0220463 0