# vtk DataFile Version 3.0
File generated from DClib
ASCII

DATASET UNSTRUCTURED_GRID
POINTS 1909 float
50 0 0 
48.75 0 0 
50 1.66667 0 
47.5 0 0 
50 3.33333 0 
46.25 0 0 
50 5 0 
45 0 0 
43.75 0 0 
50 6.66667 0 
43 2 0 
42.5 0 0 
50 8.33333 0 
43 4.66667 0 
41.25 0 0 
41.075 2 0 
50 10 0 
40 0 0 
43 7.33333 0 
39.15 2 0 
38.75 0 0 
43 10 0 
37.5 0 0 
37.225 2 0 
36.25 0 0 
36 4 0 
35.3 2 0 
36 5 0 
35 0 0 
35.325 4 0 
36 6 0 
36 7 0 
34.65 4 0 
36 8 0 
33.75 0 0 
33.975 4 0 
36 9 0 
33.375 2 0 
33.3 4 0 
36 10 0 
32.5 0 0 
32.625 4 0 
33 6 0 
31.95 4 0 
33 7.45455 0 
31.45 2 0 
31.25 0 0 
31.95 6 0 
33 8.79545 0 
31.275 4 0 
33 10 0 
30.6 4 0 
30 0 0 
30.9 6 0 
29.925 4 0 
29.525 2 0 
29.85 6 0 
29.25 4 0 
28.75 0 0 
30 8 0 
30 8.45455 0 
28.575 4 0 
29.625 8 0 
30 8.90909 0 
28.8 6 0 
30 9.25 0 
29.782 8.90909 0 
30 9.59091 0 
29.9487 9.59091 0 
29.25 8 0 
29.7462 9.25 0 
30 9.79545 0 
29.897 9.59091 0 
29.564 8.90909 0 
29.9547 9.79545 0 
29.3462 8.45455 0 
29.84 9.59091 0 
30 10 0 
29.8975 9.79545 0 
29.9882 10 0 
29.9902 10.0098 0 
29.7827 9.59091 0 
29.9765 10 0 
29.9804 10.0196 0 
29.9667 10.0098 0 
29.9591 10 0 
29.9686 10.0196 0 
29.9659 10.0341 0 
29.9569 10.0196 0 
29.9418 10 0 
29.9395 10.0196 0 
29.9515 10.0485 0 
29.932 10.0098 0 
29.9424 10.0341 0 
29.8241 9.79545 0 
29.7181 9.59091 0 
29.9166 10 0 
29.9397 10.0485 0 
29.9222 10.0196 0 
29.9279 10.0485 0 
29.9305 10.0695 0 
29.8914 10 0 
29.9077 10.0341 0 
27.9 4 0 
29.897 10.0196 0 
29.9106 10.0485 0 
29.8817 10.0098 0 
29.907 10.0695 0 
29.8933 10.0485 0 
29.9095 10.0905 0 
29.8719 10.0196 0 
27.6 2 0 
29.8556 10 0 
29.8978 10.0905 0 
29.6531 9.59091 0 
29.3437 8.90909 0 
27.5 0 0 
29.8681 10.0485 0 
29.886 10.0905 0 
29.8574 10.0341 0 
29.4839 9.25 0 
29.8723 10.0695 0 
29.7289 9.79545 0 
29.836 10.0196 0 
29.8687 10.0905 0 
29.8197 10 0 
29.8797 10.1203 0 
29.843 10.0485 0 
29.8513 10.0905 0 
29.81 10.0098 0 
29.8561 10.1203 0 
29.8002 10.0196 0 
29.8221 10.0695 0 
29.8072 10.0485 0 
29.8262 10.0905 0 
29.5782 9.59091 0 
29.8498 10.1502 0 
29.7695 10 0 
29.7858 10.0341 0 
29.838 10.1502 0 
29.8215 10.1203 0 
29.8011 10.0905 0 
29.8262 10.1502 0 
29.7714 10.0485 0 
28.875 8 0 
29.75 10.0196 0 
29.8089 10.1502 0 
29.7654 10.0905 0 
29.7193 10 0 
29.7916 10.1502 0 
29.7505 10.0695 0 
29.8079 10.1921 0 
29.7713 10.1203 0 
29.7096 10.0098 0 
29.6047 9.79545 0 
29.503 9.59091 0 
29.7213 10.0485 0 
29.7665 10.1502 0 
29.6999 10.0196 0 
29.7844 10.1921 0 
29.7296 10.0905 0 
29.6856 10.0341 0 
29.7414 10.1502 0 
29.7497 10.1921 0 
29.6503 10 0 
29.7661 10.2339 0 
29.6712 10.0485 0 
29.6999 10.1203 0 
29.7543 10.2339 0 
29.6796 10.0905 0 
29.7057 10.1502 0 
29.7425 10.2339 0 
29.1235 8.90909 0 
29.6309 10.0196 0 
29.6504 10.0695 0 
29.4146 9.59091 0 
29.7252 10.2339 0 
29.6996 10.1921 0 
29.6701 10.1502 0 
29.7079 10.2339 0 
29.6296 10.0905 0 
29.5813 10 0 
29.6023 10.0485 0 
29.5716 10.0098 0 
29.6828 10.2339 0 
29.7086 10.2914 0 
29.2101 9.25 0 
29.562 10.0196 0 
29.6201 10.1502 0 
29.6578 10.2339 0 
29.4428 9.79545 0 
29.5999 10.1203 0 
29.6849 10.2914 0 
29.6283 10.1921 0 
29.5477 10.0341 0 
29.3259 9.59091 0 
29.5608 10.0905 0 
29.5335 10.0485 0 
29.6221 10.2339 0 
29.6503 10.2914 0 
29.5702 10.1502 0 
29.4881 10 0 
29.5128 10.0695 0 
29.6511 10.3489 0 
29.5866 10.2339 0 
29.6392 10.3489 0 
29.4689 10.0196 0 
29.6002 10.2914 0 
29.6273 10.3489 0 
29.4921 10.0905 0 
29.61 10.3489 0 
29.5286 10.1921 0 
29.5016 10.1502 0 
29.5368 10.2339 0 
29.5926 10.3489 0 
29.4405 10.0485 0 
29.2199 9.59091 0 
29.4626 10.1203 0 
29.3949 10 0 
28.9 8.90909 0 
29.5676 10.3489 0 
29.5291 10.2914 0 
29.3853 10.0098 0 
28.6923 8.45455 0 
29.487 10.2339 0 
29.5426 10.3489 0 
29.3758 10.0196 0 
29.5734 10.4266 0 
29.4331 10.1502 0 
29.3993 10.0905 0 
28.5 8 0 
29.3617 10.0341 0 
29.5496 10.4266 0 
29.5071 10.3489 0 
29.2327 9.79545 0 
29.3475 10.0485 0 
29.1136 9.59091 0 
29.4187 10.2339 0 
29.5148 10.4266 0 
29.4716 10.3489 0 
29.3918 10.1921 0 
29.3271 10.0695 0 
29.4298 10.2914 0 
29.2714 10 0 
29.3406 10.1502 0 
28.9208 9.25 0 
29.3066 10.0905 0 
29.4648 10.4266 0 
29.422 10.3489 0 
29.4958 10.5042 0 
29.2524 10.0196 0 
27.75 6 0 
29.3504 10.2339 0 
29.4837 10.5042 0 
29.4718 10.5042 0 
29.2774 10.1203 0 
29.4543 10.5042 0 
29.3724 10.3489 0 
29.2244 10.0485 0 
29.4369 10.5042 0 
29.3938 10.4266 0 
28.9853 9.59091 0 
29.2481 10.1502 0 
28.6766 8.90909 0 
29.4119 10.5042 0 
29.2934 10.2914 0 
27.225 4 0 
29.148 10 0 
29.2582 10.2339 0 
29.1837 10.0905 0 
29.3869 10.5042 0 
29.1385 10.0098 0 
29.3044 10.3489 0 
29.1291 10.0196 0 
29.2072 10.1921 0 
29.3514 10.5042 0 
29.1152 10.0341 0 
29.3929 10.6071 0 
29.2949 10.4266 0 
29.1013 10.0485 0 
29.3686 10.6071 0 
29.316 10.5042 0 
29.2364 10.3489 0 
28.9623 9.79545 0 
29.1257 10.1502 0 
29.1662 10.2339 0 
29.0811 10.0695 0 
28.8566 9.59091 0 
29.3336 10.6071 0 
29.2666 10.5042 0 
29.0609 10.0905 0 
28.9875 10 0 
29.2835 10.6071 0 
29.1448 10.3489 0 
29.0321 10.1203 0 
29.2173 10.5042 0 
29.1098 10.2914 0 
28.125 8 0 
28.9688 10.0196 0 
29.1594 10.4266 0 
28.611 9.25 0 
29.29 10.71 0 
28.4486 8.90909 0 
29.0443 10.2339 0 
29.0033 10.1502 0 
29.2777 10.71 0 
28.9413 10.0485 0 
29.2128 10.6071 0 
29.2655 10.71 0 
29.1497 10.5042 0 
29.2478 10.71 0 
28.7003 9.59091 0 
29.0533 10.3489 0 
29.2303 10.71 0 
28.9629 10.1921 0 
28.9013 10.0905 0 
29.2051 10.71 0 
29.0822 10.5042 0 
29.1801 10.71 0 
28.827 10 0 
29.1144 10.6071 0 
28.8177 10.0098 0 
28.9225 10.2339 0 
28.8085 10.0196 0 
29.1447 10.71 0 
28.7949 10.0341 0 
28.8443 10.1502 0 
28.977 10.4266 0 
28.9322 10.3489 0 
29.1094 10.71 0 
28.7813 10.0485 0 
28.9912 10.5042 0 
29.1562 10.8438 0 
28.5436 9.59091 0 
28.7615 10.0695 0 
28.8669 10.2914 0 
29.1313 10.8438 0 
28.6184 9.79545 0 
29.0602 10.71 0 
28.2207 8.90909 0 
28.7418 10.0905 0 
28.0378 8.45455 0 
28.9798 10.6071 0 
29.0958 10.8438 0 
29.0112 10.71 0 
28.9005 10.5042 0 
28.7136 10.1203 0 
28.7644 10.2339 0 
28.8113 10.3489 0 
29.0454 10.8438 0 
28.6223 10 0 
28.6854 10.1502 0 
28.2746 9.25 0 
28.9441 10.71 0 
28.6042 10.0196 0 
27.75 8 0 
28.9747 10.8438 0 
28.6459 10.1921 0 
28.5773 10.0485 0 
29.0225 10.9775 0 
28.3532 9.59091 0 
28.7804 10.5042 0 
28.736 10.4266 0 
28.8772 10.71 0 
29.0097 10.9775 0 
28.9971 10.9775 0 
28.799 10.6071 0 
28.9791 10.9775 0 
28.5384 10.0905 0 
28.6064 10.2339 0 
28.6543 10.3489 0 
28.9611 10.9775 0 
28.8769 10.8438 0 
27.9867 8.90909 0 
26.25 0 0 
28.9358 10.9775 0 
28.7871 10.71 0 
28.9106 10.9775 0 
28.6607 10.5042 0 
28.4177 10 0 
26.55 4 0 
28.552 10.2914 0 
28.483 10.1502 0 
28.4087 10.0098 0 
28.8751 10.9775 0 
28.3998 10.0196 0 
28.3866 10.0341 0 
28.8399 10.9775 0 
28.6974 10.71 0 
28.3735 10.0485 0 
28.1625 9.59091 0 
28.7436 10.8438 0 
28.4976 10.3489 0 
28.3543 10.0695 0 
28.791 10.9775 0 
28.4052 10.2339 0 
28.3352 10.0905 0 
28.8519 11.1481 0 
28.1869 9.79545 0 
28.5607 10.6071 0 
28.5053 10.5042 0 
28.7423 10.9775 0 
28.8258 11.1481 0 
28.308 10.1203 0 
28.5787 10.71 0 
27.904 9.25 0 
28.7893 11.1481 0 
28.424 10.4266 0 
27.7528 8.90909 0 
28.2807 10.1502 0 
28.6758 10.9775 0 
27.375 8 0 
28.7383 11.1481 0 
28.1619 10 0 
28.5649 10.8438 0 
28.2425 10.1921 0 
28.6096 10.9775 0 
28.1444 10.0196 0 
28.298 10.3489 0 
28.4605 10.71 0 
26.7 6 0 
27.9315 9.59091 0 
28.3503 10.5042 0 
28.6676 11.1481 0 
28.1187 10.0485 0 
28.2042 10.2339 0 
28.5207 10.9775 0 
28.0813 10.0905 0 
28.6814 11.3186 0 
27.3818 8.45455 0 
28.6679 11.3186 0 
28.1516 10.2914 0 
28.5703 11.1481 0 
28.6544 11.3186 0 
28.6358 11.3186 0 
27.5109 8.90909 0 
28.3072 10.71 0 
28.6173 11.3186 0 
28.2524 10.6071 0 
28.4322 10.9775 0 
28.028 10.1502 0 
28.5915 11.3186 0 
28.0989 10.3489 0 
28.33 10.8438 0 
28.5658 11.3186 0 
28.153 10.5042 0 
27.9061 10 0 
27.8975 10.0098 0 
28.5303 11.3186 0 
28.4384 11.1481 0 
27.7002 9.59091 0 
27.889 10.0196 0 
27.8765 10.0341 0 
28.4949 11.3186 0 
28.3154 10.9775 0 
27.9532 10.2339 0 
27.8639 10.0485 0 
28.0276 10.4266 0 
28.1544 10.71 0 
27.8457 10.0695 0 
27.4909 9.25 0 
28.4463 11.3186 0 
27 8 0 
27.8275 10.0905 0 
28.3979 11.3186 0 
27.8015 10.1203 0 
27.6542 9.79545 0 
25.675 2 0 
28.1991 10.9775 0 
27.2691 8.90909 0 
27.9563 10.5042 0 
28.4682 11.5318 0 
28.2625 11.1481 0 
27.7755 10.1502 0 
28.3322 11.3186 0 
27.8502 10.3489 0 
28.4401 11.5318 0 
25.875 4 0 
27.7391 10.1921 0 
28.4019 11.5318 0 
28.0268 10.8438 0 
28.2668 11.3186 0 
27.9602 10.71 0 
28.3498 11.5318 0 
27.4223 9.59091 0 
27.7026 10.2339 0 
27.5927 10 0 
28.0486 10.9775 0 
27.8616 10.6071 0 
27.5762 10.0196 0 
28.1794 11.3186 0 
28.2786 11.5318 0 
27.5519 10.0485 0 
27.6524 10.2914 0 
28.0319 11.1481 0 
27.7108 10.5042 0 
27.5167 10.0905 0 
27.0169 8.90909 0 
28.0924 11.3186 0 
27.6021 10.3489 0 
27.8988 10.9775 0 
28.1818 11.5318 0 
27.7667 10.71 0 
26.625 8 0 
28.255 11.745 0 
27.4664 10.1502 0 
28.2402 11.745 0 
28.2256 11.745 0 
28.2059 11.745 0 
27.978 11.3186 0 
26.7234 8.45455 0 
27.0259 9.25 0 
27.5342 10.4266 0 
28.1863 11.745 0 
27.1442 9.59091 0 
28.0516 11.5318 0 
28.1598 11.745 0 
27.3959 10.2339 0 
28.1334 11.745 0 
27.2793 10 0 
27.2714 10.0098 0 
27.2635 10.0196 0 
27.7086 10.9775 0 
27.6431 10.8438 0 
28.0975 11.745 0 
27.8643 11.3186 0 
27.4661 10.5042 0 
27.2518 10.0341 0 
27.2401 10.0485 0 
28.0617 11.745 0 
26.7648 8.90909 0 
27.5255 10.71 0 
27.7353 11.1481 0 
27.2231 10.0695 0 
28.0133 11.745 0 
27.2061 10.0905 0 
27.8791 11.5318 0 
27.2986 10.3489 0 
27.1818 10.1203 0 
27.9651 11.745 0 
27.3758 10.6071 0 
27.0077 9.79545 0 
27.7174 11.3186 0 
27.1576 10.1502 0 
25 0 0 
27.5193 10.9775 0 
27.9003 11.745 0 
27.1236 10.1921 0 
26.25 8 0 
27.9939 12.0061 0 
25.65 6 0 
27.8359 11.745 0 
26.8136 9.59091 0 
27.0896 10.2339 0 
27.9626 12.0061 0 
27.2853 10.71 0 
25.2 4 0 
27.5713 11.3186 0 
27.9218 12.0061 0 
26.4998 8.90909 0 
27.167 10.5042 0 
27.6541 11.5318 0 
27.0427 10.2914 0 
27.7503 11.745 0 
26.9033 10 0 
27.8677 12.0061 0 
26.8882 10.0196 0 
26.8659 10.0485 0 
26.9958 10.3489 0 
27.2836 10.9775 0 
27.6652 11.745 0 
27.3609 11.1481 0 
27.7955 12.0061 0 
26.499 9.25 0 
[...]
POINT_DATA 1909
SCALARS phi float 1
LOOKUP_TABLE default
VECTORS Displacement float
0 0 0
0 0 0
0 -0.00600244 0
0 0 0
0 -0.00829688 0
0 0 0
0 -0.00718823 0
0 0 0
0 0 0
0 -0.00302147 0
0.0170296 -0.00520023 0
0 0 0
0 0.00394381 0
0.0330221 -0.00309363 0
0 0 0
0.0231179 -0.00509103 0
0 0.0128709 0
0 0 0
0.0438175 0.00732018 0
0.0298124 -0.00516365 0
0 0 0
0.0495689 0.0238763 0
0 0 0
0.036974 -0.00554433 0
0 0 0
0.0700551 -0.00340714 0
0.0442076 -0.00623819 0
0.0825179 0.000858954 0
0 0 0
0.0751593 -0.00376259 0
0.0914343 0.00659579 0
0.0971809 0.0134489 0
0.0801775 -0.00420818 0
0.10064 0.020672 0
0 0 0
0.0851713 -0.00492188 0
0.103377 0.0282705 0
0.0510525 -0.00720191 0
0.0900276 -0.00574067 0
0.105966 0.0372941 0
0 0 0
0.0946536 -0.00673159 0
0.120925 0.00351164 0
0.0990497 -0.00782357 0
0.132451 0.015839 0
0.0570776 -0.00837991 0
0 0 0
0.131137 -0.000493046 0
0.137424 0.0326562 0
0.103123 -0.00904037 0
0.138453 0.0567332 0
0.106874 -0.0103477 0
0 0 0
0.139772 -0.00468347 0
0.110257 -0.0117465 0
0.0619246 -0.00972668 0
0.147068 -0.00924321 0
0.113246 -0.0132294 0
0 0 0
0.172121 0.00176362 0
0.177106 0.00568371 0
0.11585 -0.0147762 0
0.175712 -0.00133061 0
0.181994 0.0106648 0
0.152989 -0.0141511 0
0.185692 0.017741 0
0.184605 0.00758502 0
0.189523 0.0278165 0
0.190325 0.0254496 0
0.17888 -0.00450586 0
0.189156 0.0123407 0
0.190458 0.0347631 0
0.191099 0.0234691 0
0.186953 0.00483715 0
0.191231 0.0323731 0
0.183763 -0.000866292 0
0.191861 0.0214738 0
0.190763 0.0426675 0
0.192254 0.0295957 0
0.191117 0.0428084 0
0.309071 0.085396 0
0.192568 0.01971 0
0.191519 0.0427689 0
0.402909 0.118051 0
0.306926 0.0841971 0
0.192144 0.042659 0
0.400769 0.116831 0
0.407514 0.117617 0
0.398293 0.115355 0
0.192825 0.0424049 0
0.394043 0.113275 0
0.407663 0.116401 0
0.303015 0.0817988 0
0.405552 0.115155 0
0.193638 0.0265799 0
0.193286 0.0179229 0
0.19383 0.0417048 0
0.407465 0.115319 0
0.389638 0.110995 0
0.407304 0.114337 0
0.407998 0.115009 0
0.19487 0.0409541 0
0.401006 0.111818 0
0.118015 -0.0164112 0
0.383253 0.107606 0
0.406808 0.113114 0
0.297406 0.0775127 0
0.407753 0.11322 0
0.406148 0.111796 0
0.407287 0.113528 0
0.376965 0.104179 0
0.0653052 -0.011214 0
0.19629 0.0394316 0
0.407225 0.112669 0
0.193943 0.0162801 0
0.189242 0.00228479 0
0 0 0
0.40469 0.109779 0
0.407141 0.111799 0
0.393145 0.10654 0
0.19225 0.00817691 0
0.407245 0.110584 0
0.195452 0.0233613 0
0.36852 0.099105 0
0.406991 0.110451 0
0.19768 0.0379723 0
0.406356 0.111527 0
0.402635 0.107542 0
0.406825 0.109052 0
0.289984 0.0707894 0
0.40621 0.109683 0
0.360235 0.0941706 0
0.40566 0.106312 0
0.399092 0.104009 0
0.406516 0.106945 0
0.194644 0.014554 0
0.405186 0.109343 0
0.199445 0.0356518 0
0.381042 0.0981591 0
0.405104 0.108382 0
0.405959 0.106815 0
0.406156 0.104788 0
0.40502 0.1074 0
0.394818 0.100328 0
0.181903 -0.00769797 0
0.349269 0.0872764 0
0.404883 0.10593 0
0.40535 0.101708 0
0.201065 0.0334829 0
0.404741 0.104444 0
0.401361 0.0997173 0
0.403517 0.106138 0
0.405525 0.102513 0
0.280117 0.0614862 0
0.197684 0.019911 0
0.195292 0.0129169 0
0.38821 0.0949518 0
0.404522 0.102271 0
0.338599 0.0807249 0
0.403356 0.104111 0
0.404204 0.0985904 0
0.363296 0.0862111 0
0.404298 0.100104 0
0.4031 0.101102 0
0.203002 0.0306074 0
0.401819 0.102816 0
0.380907 0.0895783 0
0.404561 0.0963816 0
0.401726 0.101778 0
0.401895 0.0942476 0
0.403967 0.0970389 0
0.401632 0.100746 0
0.191353 -0.000216838 0
0.324637 0.0721483 0
0.392206 0.0901859 0
0.196041 0.011159 0
0.401493 0.0992327 0
0.402704 0.0967871 0
0.403637 0.0940461 0
0.401354 0.097733 0
0.398788 0.0898819 0
0.204649 0.0279124 0
0.370245 0.0822585 0
0.26703 0.0498794 0
0.401154 0.0955854 0
0.399557 0.0982068 0
0.195068 0.00427129 0
0.311285 0.0641235 0
0.403026 0.0899831 0
0.400954 0.093475 0
0.200251 0.0161756 0
0.401752 0.0880924 0
0.399379 0.0961543 0
0.40213 0.0908668 0
0.338409 0.0706904 0
0.196767 0.00947106 0
0.393327 0.0839994 0
0.358977 0.0750765 0
0.400669 0.0905382 0
0.399115 0.0931975 0
0.402246 0.0860671 0
0.206526 0.0247629 0
0.37553 0.0772315 0
0.39736 0.0936623 0
0.400385 0.0876867 0
0.397267 0.0926471 0
0.294424 0.054326 0
0.398729 0.0890582 0
0.397175 0.0916442 0
0.386746 0.0781142 0
0.397041 0.0901909 0
0.401263 0.0831157 0
0.400494 0.0809346 0
0.399996 0.0838264 0
0.396906 0.0887623 0
0.343125 0.0658799 0
0.197647 0.00760646 0
0.394266 0.0773013 0
0.208014 0.0217804 0
0.193375 -0.00270946 0
0.396714 0.0867333 0
0.398188 0.0834606 0
0.25071 0.0366644 0
0.189167 -0.00725153 0
0.399625 0.0801409 0
0.396524 0.0847525 0
0.279175 0.0454742 0
0.394586 0.0877193 0
0.397985 0.0759223 0
0.37621 0.0704707 0
0.184553 -0.0109965 0
0.30555 0.052184 0
0.394413 0.0857765 0
0.396259 0.0820074 0
0.203001 0.0120076 0
0.326897 0.0569612 0
0.198552 0.00582262 0
0.399055 0.0752934 0
0.394159 0.0830157 0
0.396 0.0793513 0
0.399083 0.073362 0
0.348104 0.0605848 0
0.397465 0.0761935 0
0.209644 0.018465 0
0.393039 0.0695086 0
0.197708 0.000354376 0
0.364205 0.062792 0
0.393796 0.0791878 0
0.395641 0.0757721 0
0.391862 0.0820048 0
0.261694 0.0355115 0
0.157463 -0.0193366 0
0.398399 0.0707176 0
0.391781 0.0810643 0
0.391701 0.080138 0
0.377845 0.0634225 0
0.391584 0.0788047 0
0.395291 0.0723377 0
0.305585 0.0462355 0
0.391467 0.0774966 0
0.393285 0.0740385 0
0.199646 0.00378043 0
0.38663 0.063122 0
0.195251 -0.0052089 0
0.3913 0.0756475 0
0.396536 0.0671061 0
0.119779 -0.0180801 0
0.210894 0.0153022 0
0.396869 0.0648864 0
0.346231 0.0532428 0
0.391133 0.0738429 0
0.233764 0.0231355 0
0.394825 0.0678217 0
0.247999 0.0272868 0
0.392278 0.0613937 0
0.390896 0.0713448 0
0.267955 0.0324821 0
0.388531 0.0748392 0
0.392591 0.0673288 0
0.285545 0.0364211 0
0.388378 0.073064 0
0.39066 0.0689222 0
0.394379 0.0635356 0
0.205725 0.00711902 0
0.375477 0.0551506 0
0.394554 0.0592937 0
0.30784 0.0407015 0
0.200767 0.00181025 0
0.388155 0.070563 0
0.39033 0.0656457 0
0.326746 0.0437401 0
0.212208 0.0116976 0
0.387836 0.0671056 0
0.393771 0.0580285 0
0.346658 0.0459248 0
0.390003 0.0624923 0
0.394534 0.0560809 0
0.186968 -0.0142818 0
0.234852 0.0187339 0
0.391686 0.0588848 0
0.200179 -0.0037548 0
0.385249 0.0680335 0
0.196974 -0.00778921 0
0.389604 0.0523838 0
0.361846 0.0470252 0
0.385182 0.0671802 0
0.263116 0.0254925 0
0.387386 0.0624443 0
0.385115 0.0663395 0
0.389556 0.0583411 0
0.385019 0.0651394 0
0.202108 -0.000496867 0
0.393112 0.0528882 0
0.384923 0.0639604 0
0.374772 0.0466759 0
0.30119 0.0326617 0
0.384783 0.062301 0
0.389118 0.054384 0
0.384642 0.0606779 0
0.21324 0.00826407 0
0.386763 0.056349 0
0.221238 0.0108748 0
0.382812 0.0456182 0
0.226751 0.0123748 0
0.384441 0.0584346 0
0.236354 0.0148194 0
0.340651 0.037438 0
0.390603 0.0486782 0
0.39159 0.0465303 0
0.384239 0.0562548 0
0.246266 0.0170356 0
0.388553 0.0493295 0
0.38123 0.0597105 0
0.203432 -0.00275077 0
0.26222 0.0203156 0
0.387673 0.043225 0
0.381105 0.058096 0
0.208242 0.00120235 0
0.383954 0.0533102 0
0.198564 -0.0103635 0
0.277676 0.0229563 0
0.193469 -0.0137668 0
0.385929 0.0486663 0
0.380924 0.0558475 0
0.383669 0.0504756 0
0.388028 0.0445893 0
0.298536 0.0259062 0
0.370106 0.037657 0
0.389233 0.0406017 0
0.380666 0.0527601 0
0.214248 0.00418348 0
0.317072 0.0278982 0
0.202502 -0.00815002 0
0.383281 0.0467489 0
0.220777 0.00593624 0
0.189001 -0.0176282 0
0.380304 0.0486193 0
0.337606 0.0291231 0
0.231942 0.00828965 0
0.377364 0.0518609 0
0.204968 -0.00542647 0
0.387375 0.0387251 0
0.388564 0.0369228 0
0.3829 0.0432085 0
0.377308 0.0510842 0
0.377251 0.05032 0
0.384894 0.0394162 0
0.377171 0.0492457 0
0.253686 0.0122107 0
0.353636 0.0294805 0
0.383902 0.0336245 0
0.377091 0.0481918 0
0.379806 0.0432363 0
0.200009 -0.0130191 0
0 0 0
0.376976 0.0467251 0
0.382405 0.0387048 0
0.376861 0.0452938 0
0.386698 0.033379 0
0.215081 0.000298071 0
0.121078 -0.019856 0
0.36756 0.028464 0
0.288003 0.0170701 0
0.216575 0.000650574 0
0.3767 0.0433325 0
0.218157 0.000992897 0
0.220771 0.00152763 0
0.37654 0.0414333 0
0.381943 0.0344961 0
0.224106 0.00221192 0
0.206416 -0.00806745 0
0.379155 0.0365102 0
0.37622 0.0269585 0
0.230341 0.00344965 0
0.376322 0.0388862 0
0.328408 0.0204376 0
0.237751 0.00479044 0
0.372699 0.0425447 0
0.210526 -0.00589485 0
0.383806 0.0288788 0
0.385156 0.0270557 0
0.376109 0.0364464 0
0.372606 0.0410932 0
0.250256 0.00683416 0
0.381404 0.0293424 0
0.204721 -0.0128737 0
0.372475 0.039122 0
0.381294 0.0242072 0
0.201306 -0.0156714 0
0.263564 0.00857209 0
0.37583 0.0332614 0
0.19076 -0.0209635 0
0.372293 0.0364671 0
0.215762 -0.004371 0
0.378366 0.0284929 0
0.282868 0.0105687 0
0.375566 0.030251 0
0.217171 -0.00423587 0
0.361092 0.0196786 0
0.380962 0.0246127 0
0.160434 -0.0247432 0
0.208024 -0.0112172 0
0.382767 0.0213483 0
0.372045 0.0329615 0
0.219995 -0.0039501 0
0.301161 0.0117581 0
0.375234 0.0264374 0
0.226795 -0.00312649 0
0.368119 0.0339296 0
0.196714 -0.020351 0
0.368081 0.0332479 0
0.322861 0.0122326 0
0.371717 0.0284644 0
0.368043 0.0325794 0
0.367992 0.0316615 0
0.202455 -0.0184166 0
0.380408 0.0189724 0
0.367943 0.0307645 0
0.38185 0.0175123 0
0.374935 0.0228805 0
0.242267 -0.00134481 0
0.367875 0.0295381 0
0.340653 0.0119355 0
0.377516 0.0193748 0
0.367809 0.0283458 0
0.376871 0.014804 0
0.216355 -0.00882217 0
0.216718 -0.00885548 0
0.36772 0.0267342 0
0.371307 0.022892 0
0.209466 -0.014342 0
0.217078 -0.00889348 0
0.217703 -0.00892322 0
0.367634 0.025178 0
0.374573 0.0184948 0
0.271281 0.00130865 0
0.218394 -0.00894327 0
0.35694 0.010289 0
0.379763 0.0138162 0
0.219804 -0.00887206 0
0.206813 -0.0180031 0
0.36752 0.0231094 0
0.19215 -0.0243171 0
0.221599 -0.00872833 0
0.367414 0.0211279 0
0.22519 -0.00833799 0
0.212788 -0.0140997 0
0.0669745 -0.0128202 0
0.374254 0.0144022 0
0.203449 -0.0211494 0
0.367472 0.00833422 0
0.36305 0.0243029 0
0.370831 0.0162188 0
0.229976 -0.0077751 0
0.367277 0.0185462 0
0.311653 0.00320118 0
0.362996 0.0230507 0
0.121959 -0.0216269 0
0.238681 -0.00681688 0
0.362922 0.0214057 0
0.376627 0.00914833 0
0.367151 0.0160888 0
0.378212 0.007608 0
0.362822 0.0192404 0
0.210943 -0.0180633 0
0.249138 -0.00589364 0
0.216877 -0.0140074 0
0.373907 0.00939761 0
0.373725 0.0050978 0
0.217404 -0.0141524 0
0.36699 0.0129485 0
0.362691 0.0164151 0
0.218236 -0.0143663 0
0.265602 -0.00483896 0
0.370289 0.00835567 0
0.348942 0.00141415 0
0.219798 -0.0146299 0
0.204324 -0.0239772 0
0.366836 0.00995117 0
0.282647 -0.00445945 0
0.373512 0.00461709 0
0.362525 0.0127875 0
0.375609 0.00180885 0
0.193261 -0.027685 0
0.357827 0.0155228 0
0.223521 -0.0148242 0
0.357816 0.0149424 0
0.357804 0.0143725 0
0.357791 0.0136145 0
0.366644 0.0061597 0
0.19891 -0.0269749 0
0.20864 -0.0236768 0
0.304559 -0.00486687 0
0.357779 0.0128714 0
0.212176 -0.0217576 0
0.36232 0.00821049 0
0.357763 0.0118756 0
0.233172 -0.0147312 0
0.357747 0.0109016 0
0.217368 -0.0189896 0
0.217562 -0.0190804 0
0.217768 -0.0191685 0
0.372866 -0.00123896 0
0.374503 -0.00253707 0
0.357725 0.00959827 0
0.36643 0.00248752 0
0.323824 -0.00611329 0
0.218061 -0.0193039 0
0.21836 -0.0194393 0
0.357703 0.00832635 0
0.205035 -0.0267923 0
0.368347 -0.00485826 0
0.369582 -0.00104929 0
0.218828 -0.0196256 0
0.357671 0.00663797 0
0.219285 -0.0198201 0
0.362066 0.00248632 0
0.25492 -0.0143753 0
0.220066 -0.0200615 0
0.357638 0.00499066 0
0.342794 -0.00882595 0
0.215123 -0.0233509 0
0.366132 -0.00213659 0
0.220942 -0.0202946 0
0 0 0
0.372071 -0.00683054 0
0.357592 0.00282429 0
0.222792 -0.0204944 0
0.194032 -0.0310521 0
0.352119 0.00594037 0
0.161883 -0.0303282 0
0.35754 0.000703295 0
0.213275 -0.0261115 0
0.225284 -0.0206169 0
0.352103 0.00481907 0
0.355829 -0.0116939 0
0.122358 -0.0235371 0
0.365791 -0.00663167 0
0.352079 0.00338486 0
0.205626 -0.0297314 0
0.291661 -0.0147318 0
0.361703 -0.0046712 0
0.230372 -0.020617 0
0.357459 -0.00206138 0
0.218186 -0.0245756 0
0.352046 0.00152379 0
0.21843 -0.0247921 0
0.218858 -0.0250949 0
0.237323 -0.0205375 0
0.370079 -0.0136241 0
0.357364 -0.00477874 0
0.368419 -0.0122468 0
0.352001 -0.000904484 0
0.210009 -0.0300238 0
0.219535 -0.0255299 0
0.364032 -0.0159203 0
0.365288 -0.0121801 0
0.249347 -0.0205577 0
0.351941 -0.00407434 0
0.357215 -0.00828186 0
0.220578 -0.0261635 0
0.332382 -0.0182933 0
0.206043 -0.032661 0
0.200141 -0.0335955 0
0.214044 -0.0304251 0
0.361103 -0.0135077 0
0.263454 -0.0210596 0
0.194535 -0.0344261 0
0.346274 -0.0031368 0
0.222508 -0.0270543 0
0.357042 -0.0117167 0
0.346276 -0.0036973 0
0.351844 -0.00819671 0
0.366767 -0.019971 0
0.346278 -0.00425143 0
0.364714 -0.0175502 0
0.346281 -0.00495889 0
0.346282 -0.00565856 0
0.346285 -0.00657004 0
0.218752 -0.0300291 0
0.283386 -0.0225199 0
0.218892 -0.0301378 0
0.219029 -0.0302473 0
0.346285 -0.00747201 0
0.219219 -0.0304116 0
0.227489 -0.0282389 0
0.356783 -0.0160651 0
0.219408 -0.0305769 0
0.346282 -0.0086607 0
0.219672 -0.0308198 0
0.351677 -0.0135084 0
0.346277 -0.00983743 0
0.219936 -0.0310651 0
0.220303 -0.0314179 0
0.206313 -0.0357485 0
0.302641 -0.0250005 0
0.346262 -0.0113913 0
0.365579 -0.0251254 0
0.363803 -0.0240374 0
0.220669 -0.0317745 0
0.356484 -0.0203057 0
0.346244 -0.0129292 0
0.356817 -0.0266367 0
0.216737 -0.0338553 0
0.221192 -0.0322726 0
0.360075 -0.0241252 0
0.240962 -0.0299456 0
0.346209 -0.0149521 0
0.214575 -0.0354123 0
0.221702 -0.0327807 0
0.194733 -0.0377922 0
0.351382 -0.0202314 0
0.122322 -0.0253845 0
0.346168 -0.0169511 0
0.32353 -0.0291804 0
0.210691 -0.0371447 0
0.222576 -0.0334371 0
0.356042 -0.0255505 0
0.339495 -0.013516 0
0.362701 -0.0302441 0
0.346101 -0.019556 0
0.339499 -0.0146855 0
0.223618 -0.0340806 0
0.206401 -0.0388255 0
0.339501 -0.016133 0
0.21925 -0.0362106 0
0.219458 -0.0364319 0
0.346021 -0.0221208 0
0.339241 -0.0334917 0
0.269611 -0.0329938 0
0.339499 -0.0179682 0
0.219772 -0.0367608 0
0.226028 -0.034796 0
0.355533 -0.0306451 0
0.220228 -0.0372437 0
0.200453 -0.0402224 0
0.350862 -0.0285389 0
0.339485 -0.020329 0
0.345896 -0.0254129 0
0.229439 -0.0354848 0
0.220876 -0.0379426 0
0.161813 -0.0360637 0
0.359877 -0.03757 0
0.214689 -0.0403494 0
0.339453 -0.0233815 0
0.358414 -0.0365565 0
0.19468 -0.0411645 0
0.345748 -0.0286422 0
0.350446 -0.0391942 0
0.221755 -0.0389507 0
0.236384 -0.0364243 0
0.206309 -0.0420898 0
0.354805 -0.0367946 0
0.339383 -0.0273147 0
0 0 0
0.345523 -0.0327119 0
0.310004 -0.0390324 0
0.332659 -0.0237059 0
0.223012 -0.0403801 0
0.245873 -0.0376702 0
0.332663 -0.0243292 0
0.332666 -0.024948 0
0.0667203 -0.0144993 0
0.21915 -0.0423633 0
0.332669 -0.0257035 0
0.349979 -0.0385467 0
0.219262 -0.0424819 0
0.219374 -0.0426008 0
0.332671 -0.0264535 0
0.35502 -0.0442478 0
0.219529 -0.0427772 0
0.339244 -0.0323294 0
0.34526 -0.0366884 0
0.332672 -0.0273929 0
0.219683 -0.0429545 0
0.353987 -0.0427285 0
0.2199 -0.0432137 0
0.332671 -0.028325 0
0.220113 -0.0434747 0
0.26103 -0.0400406 0
0.332667 -0.0295135 0
0.225389 -0.0424171 0
0.220409 -0.0438517 0
0.210439 -0.0450989 0
0.121782 -0.027409 0
0.33266 -0.0306916 0
0.206028 -0.0453391 0
0.2207 -0.0442327 0
0.194353 -0.0445276 0
0.332647 -0.032208 0
0.221094 -0.0447745 0
0.344875 -0.0416007 0
0.214385 -0.045969 0
0.216675 -0.045753 0
0.33263 -0.0337087 0
0.221479 -0.0453235 0
0.338985 -0.0386249 0
0.277903 -0.0436113 0
0.3326 -0.0356438 0
0.35436 -0.0503617 0
0.221991 -0.0460873 0
0.352736 -0.0497199 0
0.199874 -0.0468705 0
0.231628 -0.0456144 0
0.340432 -0.0499281 0
0.332563 -0.0375551 0
0.222479 -0.0468635 0
0.34443 -0.0463771 0
0.348509 -0.0502483 0
0.332503 -0.0400071 0
0.223135 -0.0479041 0
0.298337 -0.0493422 0
0.205528 -0.0488 0
0.324601 -0.0354931 0
0.338526 -0.0463761 0
0.218513 -0.049241 0
0.33243 -0.0424238 0
0.324607 -0.0368318 0
0.218679 -0.0494751 0
0.223771 -0.0489596 0
0.218927 -0.0498234 0
0.193786 -0.0478904 0
0.32461 -0.0384138 0
0.343792 -0.0521409 0
0.351245 -0.0563655 0
0.219284 -0.050334 0
0.332318 -0.0454923 0
0.324606 -0.0403349 0
0.224687 -0.0503788 0
0.248952 -0.0511014 0
0.219783 -0.0510718 0
0.213595 -0.0515129 0
0.315799 -0.0556647 0
0.324592 -0.042715 0
0.332184 -0.0485082 0
0.220462 -0.0521227 0
0.225709 -0.0518436 0
0.343061 -0.0577276 0
0.324556 -0.0456996 0
0.204832 -0.0522386 0
0.337743 -0.0556986 0
0.331983 -0.0522829 0
0.22137 -0.0536005 0
0.1208 -0.0292838 0
0.160239 -0.0419036 0
0.346727 -0.0637574 0
0.228536 -0.0536603 0
0.208959 -0.0539072 0
0.324484 -0.0494565 0
0.3462 -0.0635688 0
0.33056 -0.0636047 0
0.192971 -0.0512349 0
0.331748 -0.0559798 0
0.22255 -0.0556659 0
0.342033 -0.06431 0
0.217278 -0.0559817 0
0.316384 -0.0471166 0
0.217362 -0.0561033 0
0.217446 -0.0562251 0
0.23287 -0.0556227 0
0.198444 -0.0535305 0
0.316388 -0.0478385 0
0.282292 -0.0601599 0
0.217566 -0.0564051 0
0.324348 -0.0541696 0
0.217685 -0.0565856 0
0.31639 -0.0485564 0
0.217853 -0.0568484 0
0.316393 -0.0493913 0
0.21802 -0.0571125 0
0.331403 -0.0605259 0
0.316393 -0.0502215 0
0.218254 -0.0574914 0
0.316393 -0.0512139 0
0.218486 -0.0578731 0
0.203858 -0.055906 0
0.31639 -0.0522001 0
0.212213 -0.0576759 0
0.338274 -0.0703125 0
0.218804 -0.0584138 0
0.336464 -0.0666417 0
0.316384 -0.0534061 0
0.223952 -0.0585633 0
0.219117 -0.0589602 0
0.2417 -0.058544 0
0.324103 -0.0600246 0
0.316375 -0.0546035 0
0.331006 -0.0649618 0
0.340881 -0.0706658 0
0.214275 -0.0588664 0
0 0 0
0.219532 -0.0597261 0
0.316359 -0.0560916 0
0.191928 -0.0545678 0
0.219938 -0.0605044 0
0.316338 -0.0575675 0
0.316305 -0.0594175 0
0.22046 -0.0615835 0
0.253478 -0.062547 0
0.330443 -0.0703125 0
0.316265 -0.0612496 0
0.323678 -0.0671893 0
0.220949 -0.0626915 0
0.226377 -0.0627156 0
0.339705 -0.0778603 0
0.202687 -0.0595408 0
0.316203 -0.06355 0
0.339197 -0.0780122 0
0.317134 -0.0738814 0
0.119285 -0.0313575 0
0.221544 -0.0642083 0
0.215275 -0.0633712 0
0.316129 -0.0658235 0
0.215416 -0.0636145 0
0.329802 -0.0755101 0
0.215622 -0.063976 0
0.306782 -0.0603133 0
0.270021 -0.0689614 0
0.334458 -0.0791489 0
0.215916 -0.0645051 0
0.222034 -0.0657671 0
0.316017 -0.0686653 0
0.306787 -0.0618821 0
0.21031 -0.0637196 0
0.190665 -0.0578678 0
0.216322 -0.0652688 0
0.306786 -0.0636546 0
0.196196 -0.0601804 0
0.32297 -0.0757927 0
0.205955 -0.0635094 0
0.315886 -0.0714668 0
0.216862 -0.066357 0
0.222618 -0.067797 0
0.306777 -0.0657116 0
0.337143 -0.0848123 0
0.233795 -0.0694968 0
0.328923 -0.0816394 0
0.306754 -0.0681551 0
0.217549 -0.067889 0
0.201179 -0.0634065 0
0.286779 -0.0769 0
0.315694 -0.0749349 0
0.223126 -0.0698509 0
0.157193 -0.0477444 0
0.306708 -0.0711098 0
0.315472 -0.0783438 0
0.218363 -0.0700198 0
0.0644233 -0.0161454 0
0.327937 -0.0875682 0
0.306624 -0.0747215 0
0.189186 -0.0611409 0
0.22384 -0.0725431 0
0.321827 -0.08589 0
0.315153 -0.0825059 0
0.329406 -0.0912436 0
0.212646 -0.0705404 0
0.212712 -0.0706646 0
0.212777 -0.070789 0
0.212871 -0.0709727 0
0.303136 -0.0872481 0
0.212965 -0.0711569 0
0.219287 -0.0729345 0
0.331365 -0.0928814 0
0.2131 -0.0714248 0
0.306477 -0.0791518 0
0.213232 -0.071694 0
0.213418 -0.0720792 0
0.207672 -0.0702662 0
0.199477 -0.0672187 0
0.296905 -0.0733979 0
0.224801 -0.075317 0
0.2136 -0.0724668 0
0.117357 -0.0331714 0
0.314788 -0.0865823 0
0.296909 -0.0742509 0
0.25446 -0.0809711 0
0.21385 -0.0730131 0
0.29691 -0.075101 0
0.326549 -0.0943565 0
0.214091 -0.0735639 0
0.29691 -0.0760464 0
0.296908 -0.0769882 0
0.214414 -0.0743281 0
0.306226 -0.0845684 0
0.296904 -0.0780624 0
0.209129 -0.072838 0
0.21472 -0.0751004 0
0.296897 -0.0791321 0
0.220323 -0.0768537 0
0.314277 -0.0914743 0
0.193153 -0.0667857 0
0.296885 -0.0803817 0
0.187516 -0.0643623 0
0.314115 -0.0965309 0
0.228102 -0.0789506 0
0.215116 -0.0761556 0
0.29687 -0.0816252 0
0.320041 -0.0974393 0
0.21549 -0.0772223 0
0.296846 -0.0831074 0
0.325004 -0.100965 0
0 0 0
0.296818 -0.084581 0
0.305812 -0.0911296 0
0.313696 -0.0962463 0
0.215936 -0.0786641 0
0.296776 -0.0863633 0
0.197385 -0.0712444 0
0.233488 -0.0832201 0
0.296727 -0.0881331 0
0.216359 -0.0801265 0
0.201196 -0.0737269 0
0.221303 -0.0821141 0
0.296655 -0.0902914 0
0.209123 -0.0781664 0
0.209244 -0.0784142 0
0.209419 -0.0787815 0
0.204519 -0.0766117 0
0.312903 -0.101863 0
0.216848 -0.0820797 0
0.319514 -0.106552 0
0.209666 -0.0793176 0
0.296572 -0.0924312 0
0.286528 -0.09778 0
0.185642 -0.0675343 0
0.305144 -0.0989621 0
0.210007 -0.0800885 0