# vtk DataFile Version 3.0
File generated from DClib
ASCII

DATASET UNSTRUCTURED_GRID
POINTS 1909 float
50 0 0 
48.75 0 0 
50 1.66667 0 
47.5 0 0 
50 3.33333 0 
46.25 0 0 
50 5 0 
45 0 0 
43.75 0 0 
50 6.66667 0 
43 2 0 
42.5 0 0 
50 8.33333 0 
43 4.66667 0 
41.25 0 0 
41.075 2 0 
50 10 0 
40 0 0 
43 7.33333 0 
39.15 2 0 
38.75 0 0 
43 10 0 
37.5 0 0 
37.225 2 0 
36.25 0 0 
36 4 0 
35.3 2 0 
36 5 0 
35 0 0 
35.325 4 0 
36 6 0 
36 7 0 
34.65 4 0 
36 8 0 
33.75 0 0 
33.975 4 0 
36 9 0 
33.375 2 0 
33.3 4 0 
36 10 0 
32.5 0 0 
32.625 4 0 
33 6 0 
31.95 4 0 
33 7.45455 0 
31.45 2 0 
31.25 0 0 
31.95 6 0 
33 8.79545 0 
31.275 4 0 
33 10 0 
30.6 4 0 
30 0 0 
30.9 6 0 
29.925 4 0 
29.525 2 0 
29.85 6 0 
29.25 4 0 
28.75 0 0 
30 8 0 
30 8.45455 0 
28.575 4 0 
29.625 8 0 
30 8.90909 0 
28.8 6 0 
30 9.25 0 
29.782 8.90909 0 
30 9.59091 0 
29.9487 9.59091 0 
29.25 8 0 
29.7462 9.25 0 
30 9.79545 0 
29.897 9.59091 0 
29.564 8.90909 0 
29.9547 9.79545 0 
29.3462 8.45455 0 
29.84 9.59091 0 
30 10 0 
29.8975 9.79545 0 
29.9882 10 0 
29.9902 10.0098 0 
29.7827 9.59091 0 
29.9765 10 0 
29.9804 10.0196 0 
29.9667 10.0098 0 
29.9591 10 0 
29.9686 10.0196 0 
29.9659 10.0341 0 
29.9569 10.0196 0 
29.9418 10 0 
29.9395 10.0196 0 
29.9515 10.0485 0 
29.932 10.0098 0 
29.9424 10.0341 0 
29.8241 9.79545 0 
29.7181 9.59091 0 
29.9166 10 0 
29.9397 10.0485 0 
29.9222 10.0196 0 
29.9279 10.0485 0 
29.9305 10.0695 0 
29.8914 10 0 
29.9077 10.0341 0 
27.9 4 0 
29.897 10.0196 0 
29.9106 10.0485 0 
29.8817 10.0098 0 
29.907 10.0695 0 
29.8933 10.0485 0 
29.9095 10.0905 0 
29.8719 10.0196 0 
27.6 2 0 
29.8556 10 0 
29.8978 10.0905 0 
29.6531 9.59091 0 
29.3437 8.90909 0 
27.5 0 0 
29.8681 10.0485 0 
29.886 10.0905 0 
29.8574 10.0341 0 
29.4839 9.25 0 
29.8723 10.0695 0 
29.7289 9.79545 0 
29.836 10.0196 0 
29.8687 10.0905 0 
29.8197 10 0 
29.8797 10.1203 0 
29.843 10.0485 0 
29.8513 10.0905 0 
29.81 10.0098 0 
29.8561 10.1203 0 
29.8002 10.0196 0 
29.8221 10.0695 0 
29.8072 10.0485 0 
29.8262 10.0905 0 
29.5782 9.59091 0 
29.8498 10.1502 0 
29.7695 10 0 
29.7858 10.0341 0 
29.838 10.1502 0 
29.8215 10.1203 0 
29.8011 10.0905 0 
29.8262 10.1502 0 
29.7714 10.0485 0 
28.875 8 0 
29.75 10.0196 0 
29.8089 10.1502 0 
29.7654 10.0905 0 
29.7193 10 0 
29.7916 10.1502 0 
29.7505 10.0695 0 
29.8079 10.1921 0 
29.7713 10.1203 0 
29.7096 10.0098 0 
29.6047 9.79545 0 
29.503 9.59091 0 
29.7213 10.0485 0 
29.7665 10.1502 0 
29.6999 10.0196 0 
29.7844 10.1921 0 
29.7296 10.0905 0 
29.6856 10.0341 0 
29.7414 10.1502 0 
29.7497 10.1921 0 
29.6503 10 0 
29.7661 10.2339 0 
29.6712 10.0485 0 
29.6999 10.1203 0 
29.7543 10.2339 0 
29.6796 10.0905 0 
29.7057 10.1502 0 
29.7425 10.2339 0 
29.1235 8.90909 0 
29.6309 10.0196 0 
29.6504 10.0695 0 
29.4146 9.59091 0 
29.7252 10.2339 0 
29.6996 10.1921 0 
29.6701 10.1502 0 
29.7079 10.2339 0 
29.6296 10.0905 0 
29.5813 10 0 
29.6023 10.0485 0 
29.5716 10.0098 0 
29.6828 10.2339 0 
29.7086 10.2914 0 
29.2101 9.25 0 
29.562 10.0196 0 
29.6201 10.1502 0 
29.6578 10.2339 0 
29.4428 9.79545 0 
29.5999 10.1203 0 
29.6849 10.2914 0 
29.6283 10.1921 0 
29.5477 10.0341 0 
29.3259 9.59091 0 
29.5608 10.0905 0 
29.5335 10.0485 0 
29.6221 10.2339 0 
29.6503 10.2914 0 
29.5702 10.1502 0 
29.4881 10 0 
29.5128 10.0695 0 
29.6511 10.3489 0 
29.5866 10.2339 0 
29.6392 10.3489 0 
29.4689 10.0196 0 
29.6002 10.2914 0 
29.6273 10.3489 0 
29.4921 10.0905 0 
29.61 10.3489 0 
29.5286 10.1921 0 
29.5016 10.1502 0 
29.5368 10.2339 0 
29.5926 10.3489 0 
29.4405 10.0485 0 
29.2199 9.59091 0 
29.4626 10.1203 0 
29.3949 10 0 
28.9 8.90909 0 
29.5676 10.3489 0 
29.5291 10.2914 0 
29.3853 10.0098 0 
28.6923 8.45455 0 
29.487 10.2339 0 
29.5426 10.3489 0 
29.3758 10.0196 0 
29.5734 10.4266 0 
29.4331 10.1502 0 
29.3993 10.0905 0 
28.5 8 0 
29.3617 10.0341 0 
29.5496 10.4266 0 
29.5071 10.3489 0 
29.2327 9.79545 0 
29.3475 10.0485 0 
29.1136 9.59091 0 
29.4187 10.2339 0 
29.5148 10.4266 0 
29.4716 10.3489 0 
29.3918 10.1921 0 
29.3271 10.0695 0 
29.4298 10.2914 0 
29.2714 10 0 
29.3406 10.1502 0 
28.9208 9.25 0 
29.3066 10.0905 0 
29.4648 10.4266 0 
29.422 10.3489 0 
29.4958 10.5042 0 
29.2524 10.0196 0 
27.75 6 0 
29.3504 10.2339 0 
29.4837 10.5042 0 
29.4718 10.5042 0 
29.2774 10.1203 0 
29.4543 10.5042 0 
29.3724 10.3489 0 
29.2244 10.0485 0 
29.4369 10.5042 0 
29.3938 10.4266 0 
28.9853 9.59091 0 
29.2481 10.1502 0 
28.6766 8.90909 0 
29.4119 10.5042 0 
29.2934 10.2914 0 
27.225 4 0 
29.148 10 0 
29.2582 10.2339 0 
29.1837 10.0905 0 
29.3869 10.5042 0 
29.1385 10.0098 0 
29.3044 10.3489 0 
29.1291 10.0196 0 
29.2072 10.1921 0 
29.3514 10.5042 0 
29.1152 10.0341 0 
29.3929 10.6071 0 
29.2949 10.4266 0 
29.1013 10.0485 0 
29.3686 10.6071 0 
29.316 10.5042 0 
29.2364 10.3489 0 
28.9623 9.79545 0 
29.1257 10.1502 0 
29.1662 10.2339 0 
29.0811 10.0695 0 
28.8566 9.59091 0 
29.3336 10.6071 0 
29.2666 10.5042 0 
29.0609 10.0905 0 
28.9875 10 0 
29.2835 10.6071 0 
29.1448 10.3489 0 
29.0321 10.1203 0 
29.2173 10.5042 0 
29.1098 10.2914 0 
28.125 8 0 
28.9688 10.0196 0 
29.1594 10.4266 0 
28.611 9.25 0 
29.29 10.71 0 
28.4486 8.90909 0 
29.0443 10.2339 0 
29.0033 10.1502 0 
29.2777 10.71 0 
28.9413 10.0485 0 
29.2128 10.6071 0 
29.2655 10.71 0 
29.1497 10.5042 0 
29.2478 10.71 0 
28.7003 9.59091 0 
29.0533 10.3489 0 
29.2303 10.71 0 
28.9629 10.1921 0 
28.9013 10.0905 0 
29.2051 10.71 0 
29.0822 10.5042 0 
29.1801 10.71 0 
28.827 10 0 
29.1144 10.6071 0 
28.8177 10.0098 0 
28.9225 10.2339 0 
28.8085 10.0196 0 
29.1447 10.71 0 
28.7949 10.0341 0 
28.8443 10.1502 0 
28.977 10.4266 0 
28.9322 10.3489 0 
29.1094 10.71 0 
28.7813 10.0485 0 
28.9912 10.5042 0 
29.1562 10.8438 0 
28.5436 9.59091 0 
28.7615 10.0695 0 
28.8669 10.2914 0 
29.1313 10.8438 0 
28.6184 9.79545 0 
29.0602 10.71 0 
28.2207 8.90909 0 
28.7418 10.0905 0 
28.0378 8.45455 0 
28.9798 10.6071 0 
29.0958 10.8438 0 
29.0112 10.71 0 
28.9005 10.5042 0 
28.7136 10.1203 0 
28.7644 10.2339 0 
28.8113 10.3489 0 
29.0454 10.8438 0 
28.6223 10 0 
28.6854 10.1502 0 
28.2746 9.25 0 
28.9441 10.71 0 
28.6042 10.0196 0 
27.75 8 0 
28.9747 10.8438 0 
28.6459 10.1921 0 
28.5773 10.0485 0 
29.0225 10.9775 0 
28.3532 9.59091 0 
28.7804 10.5042 0 
28.736 10.4266 0 
28.8772 10.71 0 
29.0097 10.9775 0 
28.9971 10.9775 0 
28.799 10.6071 0 
28.9791 10.9775 0 
28.5384 10.0905 0 
28.6064 10.2339 0 
28.6543 10.3489 0 
28.9611 10.9775 0 
28.8769 10.8438 0 
27.9867 8.90909 0 
26.25 0 0 
28.9358 10.9775 0 
28.7871 10.71 0 
28.9106 10.9775 0 
28.6607 10.5042 0 
28.4177 10 0 
26.55 4 0 
28.552 10.2914 0 
28.483 10.1502 0 
28.4087 10.0098 0 
28.8751 10.9775 0 
28.3998 10.0196 0 
28.3866 10.0341 0 
28.8399 10.9775 0 
28.6974 10.71 0 
28.3735 10.0485 0 
28.1625 9.59091 0 
28.7436 10.8438 0 
28.4976 10.3489 0 
28.3543 10.0695 0 
28.791 10.9775 0 
28.4052 10.2339 0 
28.3352 10.0905 0 
28.8519 11.1481 0 
28.1869 9.79545 0 
28.5607 10.6071 0 
28.5053 10.5042 0 
28.7423 10.9775 0 
28.8258 11.1481 0 
28.308 10.1203 0 
28.5787 10.71 0 
27.904 9.25 0 
28.7893 11.1481 0 
28.424 10.4266 0 
27.7528 8.90909 0 
28.2807 10.1502 0 
28.6758 10.9775 0 
27.375 8 0 
28.7383 11.1481 0 
28.1619 10 0 
28.5649 10.8438 0 
28.2425 10.1921 0 
28.6096 10.9775 0 
28.1444 10.0196 0 
28.298 10.3489 0 
28.4605 10.71 0 
26.7 6 0 
27.9315 9.59091 0 
28.3503 10.5042 0 
28.6676 11.1481 0 
28.1187 10.0485 0 
28.2042 10.2339 0 
28.5207 10.9775 0 
28.0813 10.0905 0 
28.6814 11.3186 0 
27.3818 8.45455 0 
28.6679 11.3186 0 
28.1516 10.2914 0 
28.5703 11.1481 0 
28.6544 11.3186 0 
28.6358 11.3186 0 
27.5109 8.90909 0 
28.3072 10.71 0 
28.6173 11.3186 0 
28.2524 10.6071 0 
28.4322 10.9775 0 
28.028 10.1502 0 
28.5915 11.3186 0 
28.0989 10.3489 0 
28.33 10.8438 0 
28.5658 11.3186 0 
28.153 10.5042 0 
27.9061 10 0 
27.8975 10.0098 0 
28.5303 11.3186 0 
28.4384 11.1481 0 
27.7002 9.59091 0 
27.889 10.0196 0 
27.8765 10.0341 0 
28.4949 11.3186 0 
28.3154 10.9775 0 
27.9532 10.2339 0 
27.8639 10.0485 0 
28.0276 10.4266 0 
28.1544 10.71 0 
27.8457 10.0695 0 
27.4909 9.25 0 
28.4463 11.3186 0 
27 8 0 
27.8275 10.0905 0 
28.3979 11.3186 0 
27.8015 10.1203 0 
27.6542 9.79545 0 
25.675 2 0 
28.1991 10.9775 0 
27.2691 8.90909 0 
27.9563 10.5042 0 
28.4682 11.5318 0 
28.2625 11.1481 0 
27.7755 10.1502 0 
28.3322 11.3186 0 
27.8502 10.3489 0 
28.4401 11.5318 0 
25.875 4 0 
27.7391 10.1921 0 
28.4019 11.5318 0 
28.0268 10.8438 0 
28.2668 11.3186 0 
27.9602 10.71 0 
28.3498 11.5318 0 
27.4223 9.59091 0 
27.7026 10.2339 0 
27.5927 10 0 
28.0486 10.9775 0 
27.8616 10.6071 0 
27.5762 10.0196 0 
28.1794 11.3186 0 
28.2786 11.5318 0 
27.5519 10.0485 0 
27.6524 10.2914 0 
28.0319 11.1481 0 
27.7108 10.5042 0 
27.5167 10.0905 0 
27.0169 8.90909 0 
28.0924 11.3186 0 
27.6021 10.3489 0 
27.8988 10.9775 0 
28.1818 11.5318 0 
27.7667 10.71 0 
26.625 8 0 
28.255 11.745 0 
27.4664 10.1502 0 
28.2402 11.745 0 
28.2256 11.745 0 
28.2059 11.745 0 
27.978 11.3186 0 
26.7234 8.45455 0 
27.0259 9.25 0 
27.5342 10.4266 0 
28.1863 11.745 0 
27.1442 9.59091 0 
28.0516 11.5318 0 
28.1598 11.745 0 
27.3959 10.2339 0 
28.1334 11.745 0 
27.2793 10 0 
27.2714 10.0098 0 
27.2635 10.0196 0 
27.7086 10.9775 0 
27.6431 10.8438 0 
28.0975 11.745 0 
27.8643 11.3186 0 
27.4661 10.5042 0 
27.2518 10.0341 0 
27.2401 10.0485 0 
28.0617 11.745 0 
26.7648 8.90909 0 
27.5255 10.71 0 
27.7353 11.1481 0 
27.2231 10.0695 0 
28.0133 11.745 0 
27.2061 10.0905 0 
27.8791 11.5318 0 
27.2986 10.3489 0 
27.1818 10.1203 0 
27.9651 11.745 0 
27.3758 10.6071 0 
27.0077 9.79545 0 
27.7174 11.3186 0 
27.1576 10.1502 0 
25 0 0 
27.5193 10.9775 0 
27.9003 11.745 0 
27.1236 10.1921 0 
26.25 8 0 
27.9939 12.0061 0 
25.65 6 0 
27.8359 11.745 0 
26.8136 9.59091 0 
27.0896 10.2339 0 
27.9626 12.0061 0 
27.2853 10.71 0 
25.2 4 0 
27.5713 11.3186 0 
27.9218 12.0061 0 
26.4998 8.90909 0 
27.167 10.5042 0 
27.6541 11.5318 0 
27.0427 10.2914 0 
27.7503 11.745 0 
26.9033 10 0 
27.8677 12.0061 0 
26.8882 10.0196 0 
26.8659 10.0485 0 
26.9958 10.3489 0 
27.2836 10.9775 0 
27.6652 11.745 0 
27.3609 11.1481 0 
27.7955 12.0061 0 
26.499 9.25 0 
[...]
POINT_DATA 1909
SCALARS phi float 1
LOOKUP_TABLE default
VECTORS Displacement float
0 0 0
0 0 0
0 -0.0022391 0
0 0 0
0 -0.0040503 0
0 0 0
0 -0.00541812 0
0 0 0
0 0 0
0 -0.00637244 0
0.000368088 -0.00262134 0
0 0 0
0 -0.00690461 0
0.000681403 -0.0051536 0
0 0 0
0.000510401 -0.00265583 0
0 -0.00702795 0
0 0 0
0.000842927 -0.00657177 0
0.000675002 -0.00270157 0
0 0 0
0.000885551 -0.00693182 0
0 0 0
0.000863884 -0.00277383 0
0 0 0
0.00161146 -0.00495288 0
0.00107215 -0.00288475 0
0.00183627 -0.00569401 0
0 0 0
0.00174478 -0.00501433 0
0.00197462 -0.00627792 0
0.00202548 -0.00669731 0
0.00188352 -0.00508749 0
0.00200242 -0.00697886 0
0 0 0
0.00202363 -0.00518311 0
0.00194612 -0.00711552 0
0.0012873 -0.00304213 0
0.00216723 -0.00529404 0
0.00186226 -0.00714043 0
0 0 0
0.00230605 -0.00542424 0
0.00274611 -0.00688244 0
0.0024446 -0.00557202 0
0.00279936 -0.00754124 0
0.00148988 -0.00324746 0
0 0 0
0.00301722 -0.00726678 0
0.00261016 -0.00779942 0
0.00257221 -0.00573529 0
0.00219732 -0.00778043 0
0.00269447 -0.00591667 0
0 0 0
0.00326543 -0.00771111 0
0.00280052 -0.00610844 0
0.00165666 -0.0034947 0
0.00347819 -0.00820995 0
0.00289562 -0.00631677 0
0 0 0
0.00363593 -0.00943983 0
0.00360604 -0.00961672 0
0.00297162 -0.00652948 0
0.00372975 -0.00971317 0
0.00353848 -0.00975079 0
0.00364468 -0.00875006 0
0.00345711 -0.00981937 0
0.00360571 -0.00995677 0
0.00333245 -0.00985904 0
0.00335539 -0.00992124 0
0.00381203 -0.0100002 0
0.00353841 -0.0100869 0
0.00324789 -0.00985704 0
0.00337781 -0.00998414 0
0.00366597 -0.010163 0
0.00326802 -0.00992792 0
0.00377332 -0.0101641 0
0.00339914 -0.0100529 0
0.00310208 -0.00984423 0
0.00329266 -0.0100106 0
0.00311793 -0.00987268 0
0.00312874 -0.00987248 0
0.00342027 -0.0101203 0
0.00313282 -0.00989743 0
0.0031479 -0.00989621 0
0.0031489 -0.00991624 0
0.00315116 -0.00992873 0
0.00315516 -0.00991537 0
0.00316994 -0.00992561 0
0.0031639 -0.00993468 0
0.00316856 -0.00995747 0
0.00317701 -0.00996209 0
0.00318791 -0.0099524 0
0.00317943 -0.00997296 0
0.00318287 -0.00996048 0
0.00332454 -0.0101063 0
0.0034422 -0.0101945 0
0.00319017 -0.00999599 0
0.00319329 -0.0099687 0
0.00318997 -0.00998844 0
0.00319914 -0.0099852 0
0.00320957 -0.00998856 0
0.00321046 -0.0100323 0
0.00320465 -0.0100111 0
0.00303161 -0.00675523 0
0.00320813 -0.010025 0
0.00320839 -0.0100095 0
0.00321785 -0.0100462 0
0.00321918 -0.0100196 0
0.00321807 -0.0100336 0
0.0032275 -0.0100228 0
0.00322521 -0.0100602 0
0.00176607 -0.00377067 0
0.00323557 -0.0100816 0
0.00323168 -0.0100377 0
0.00346444 -0.0102673 0
0.00372123 -0.0103724 0
0 0 0
0.00323216 -0.010068 0
0.00323614 -0.0100527 0
0.00323593 -0.0100809 0
0.00361421 -0.0103572 0
0.0032353 -0.0100658 0
0.00336555 -0.0102208 0
0.00324801 -0.0101085 0
0.00324313 -0.010075 0
0.00325894 -0.0101289 0
0.00324879 -0.0100695 0
0.0032462 -0.0101016 0
0.00325045 -0.0100974 0
0.00326399 -0.010142 0
0.00325654 -0.0100984 0
0.00326907 -0.0101551 0
0.00325998 -0.0101317 0
0.00326555 -0.0101485 0
0.00326141 -0.0101296 0
0.00348901 -0.0103494 0
0.00326647 -0.0101145 0
0.00328774 -0.0101928 0
0.00327667 -0.0101746 0
0.00326996 -0.0101287 0
0.00326911 -0.0101416 0
0.00327259 -0.0101617 0
0.00327359 -0.0101429 0
0.00328413 -0.0101943 0
0.00388706 -0.0102913 0
0.00329633 -0.0102185 0
0.00327919 -0.010164 0
0.00328852 -0.0102069 0
0.00331443 -0.0102548 0
0.003285 -0.0101852 0
0.00329448 -0.0102228 0
0.00328678 -0.0101758 0
0.00328863 -0.0102043 0
0.00331791 -0.0102675 0
0.00341649 -0.0103628 0
0.00351369 -0.010431 0
0.00330875 -0.0102569 0
0.00329372 -0.0102159 0
0.00332141 -0.0102803 0
0.00329334 -0.0102038 0
0.00330429 -0.0102516 0
0.00332668 -0.0102993 0
0.00330267 -0.0102467 0
0.00330364 -0.0102453 0
0.00334726 -0.0103381 0
0.00330324 -0.0102358 0
0.00333191 -0.0103183 0
0.00331713 -0.0102927 0
0.00330627 -0.0102497 0
0.00332575 -0.0103133 0
0.00331565 -0.0102904 0
0.00330938 -0.0102636 0
0.00377261 -0.0105801 0
0.00335313 -0.0103635 0
0.00333931 -0.0103461 0
0.00354166 -0.0105257 0
0.00331409 -0.0102841 0
0.00331947 -0.0103057 0
0.00332873 -0.010334 0
0.00331891 -0.0103046 0
0.00334645 -0.0103742 0
0.00337761 -0.01042 0
0.00336169 -0.0104013 0
0.00337999 -0.0104326 0
0.0033261 -0.0103346 0
0.00332101 -0.0103171 0
0.00368677 -0.010634 0
0.00338238 -0.0104454 0
0.00334693 -0.0103947 0
0.00333345 -0.0103645 0
0.00347738 -0.0105434 0
0.00335603 -0.0104144 0
0.00332678 -0.0103448 0
0.00334292 -0.0103919 0
0.00338593 -0.0104642 0
0.00356919 -0.0106204 0
0.0033736 -0.0104568 0
0.00338945 -0.0104831 0
0.00334414 -0.0104073 0
0.00333559 -0.0103857 0
0.00336489 -0.0104549 0
0.00341484 -0.0105288 0
0.00339447 -0.0105108 0
0.00333446 -0.0103976 0
0.00335498 -0.01045 0
0.00333719 -0.0104115 0
0.0034187 -0.0105544 0
0.00334887 -0.0104452 0
0.00333994 -0.0104254 0
0.00339934 -0.0105386 0
0.00334406 -0.0104459 0
0.00337596 -0.010512 0
0.00338892 -0.0105371 0
0.00337026 -0.0105099 0
0.00334824 -0.0104663 0
0.00342431 -0.0105923 0
0.00360062 -0.0107328 0
0.00340595 -0.0105785 0
0.0034492 -0.0106367 0
0.00382019 -0.0107909 0
0.00335439 -0.010496 0
0.00336846 -0.0105302 0
0.00345074 -0.0106496 0
0.00390145 -0.0107264 0
0.00338555 -0.0105696 0
0.00336063 -0.0105258 0
0.00345227 -0.0106624 0
0.00334712 -0.0105059 0
0.00341213 -0.0106187 0
0.00343209 -0.0106479 0
0.00394828 -0.0105911 0
0.0034545 -0.0106815 0
0.00335237 -0.010534 0
0.00336967 -0.0105682 0
0.00354776 -0.0107752 0
0.00345669 -0.0107006 0
0.00363097 -0.0108457 0
0.00340633 -0.0106514 0
0.00336019 -0.0105752 0
0.00337881 -0.0106107 0
0.00341993 -0.0106756 0
0.0034598 -0.0107284 0
0.00339638 -0.0106493 0
0.00349095 -0.0107785 0
0.00344211 -0.0107283 0
0.00375659 -0.0109239 0
0.0034628 -0.0107565 0
0.00337175 -0.0106348 0
0.00339174 -0.0106702 0
0.00335482 -0.0106142 0
0.00349322 -0.0108045 0
0.00375908 -0.00931482 0
0.00342674 -0.010733 0
0.00335734 -0.0106285 0
0.00335987 -0.0106427 0
0.00346686 -0.0107966 0
0.0033636 -0.0106635 0
0.00340472 -0.0107297 0
0.00349645 -0.0108431 0
0.00336735 -0.0106843 0
0.00338855 -0.0107199 0
0.00366556 -0.0109815 0
0.00347061 -0.0108371 0
0.00386442 -0.011001 0
0.00337281 -0.0107144 0
0.0034344 -0.0108126 0
0.00307289 -0.00697939 0
0.00352937 -0.0109198 0
0.0034535 -0.0108427 0
0.00350084 -0.0108994 0
0.0033783 -0.0107444 0
0.0035302 -0.0109329 0
0.00342253 -0.0108115 0
0.00353101 -0.010946 0
0.0034753 -0.0108943 0
0.00338618 -0.0107872 0
0.00353216 -0.0109654 0
0.00335869 -0.0107583 0
0.00341242 -0.0108391 0
0.00353327 -0.0109848 0
0.00336361 -0.0107875 0
0.00339412 -0.0108299 0
0.0034402 -0.0108931 0
0.00362647 -0.0110721 0
0.00350627 -0.0109807 0
0.0034793 -0.010952 0
0.0035348 -0.0110132 0
0.00369841 -0.0111177 0
0.00337079 -0.0108299 0
0.00340528 -0.0108897 0
0.00353623 -0.0110417 0
0.00357522 -0.0111024 0
0.00338119 -0.0108907 0
0.00346364 -0.0110032 0
0.00353809 -0.0110825 0
0.00341646 -0.0109495 0
0.00348359 -0.011032 0
0.00400269 -0.0108895 0
0.00357612 -0.011129 0
0.00344517 -0.0110029 0
0.00382307 -0.011233 0
0.00335676 -0.0109035 0
0.0039049 -0.0112153 0
0.00351197 -0.0110962 0
0.00353973 -0.0111235 0
0.00335917 -0.0109185 0
0.00357735 -0.0111683 0
0.00339606 -0.010977 0
0.00336157 -0.0109335 0
0.00343183 -0.0110318 0
0.00336505 -0.0109551 0
0.00373551 -0.0112829 0
0.0034865 -0.0111129 0
0.00336853 -0.0109766 0
0.00354159 -0.0111814 0
0.00357883 -0.0112258 0
0.00337353 -0.0110075 0
0.0034471 -0.0111139 0
0.00337853 -0.0110383 0
0.00361707 -0.0112846 0
0.00341692 -0.0110974 0
0.00361726 -0.011298 0
0.00354294 -0.0112397 0
0.00361744 -0.0113114 0
0.00338562 -0.011082 0
0.00361765 -0.0113313 0
0.00358027 -0.0113084 0
0.00348821 -0.0112233 0
0.00351576 -0.0112579 0
0.00339271 -0.0111255 0
0.00361782 -0.0113512 0
0.00346748 -0.0112246 0
0.00334688 -0.0110943 0
0.00377007 -0.0114482 0
0.00361799 -0.0113801 0
0.00354388 -0.0113206 0
0.00335164 -0.0111253 0
0.00371125 -0.0114482 0
0.00340261 -0.0111863 0
0.00394182 -0.0114289 0
0.00361806 -0.0114091 0
0.0039984 -0.0112927 0
0.00344541 -0.0112626 0
0.00335844 -0.0111696 0
0.00341247 -0.011247 0
0.00348748 -0.011335 0
0.00361801 -0.0114507 0
0.00358076 -0.0114255 0
0.00354379 -0.0114022 0
0.0033681 -0.0112326 0
0.00366562 -0.0115157 0
0.00361777 -0.0114924 0
0.00388544 -0.0115672 0
0.00342596 -0.0113302 0
0.00366533 -0.0115429 0
0.00404297 -0.0111911 0
0.00338165 -0.0113211 0
0.00361708 -0.0115512 0
0.00366478 -0.0115831 0
0.00333017 -0.0112874 0
0.00380841 -0.0116485 0
0.00351326 -0.0114809 0
0.00354192 -0.0115135 0
0.00343932 -0.0114132 0
0.00333254 -0.0113036 0
0.0033349 -0.0113196 0
0.00348293 -0.0114847 0
0.00333825 -0.0113425 0
0.00366371 -0.0116416 0
0.00361598 -0.0116103 0
0.00357831 -0.011589 0
0.00334157 -0.0113652 0
0.00340036 -0.0114439 0
0.00397516 -0.0116473 0
0 0 0
0.00334628 -0.0113974 0
0.00345712 -0.011525 0
0.00335097 -0.0114295 0
0.00353813 -0.0116261 0
0.00370924 -0.011746 0
0.00309481 -0.00721156 0
0.00361375 -0.0116922 0
0.00366159 -0.0117257 0
0.00370886 -0.0117596 0
0.00335753 -0.0114745 0
0.00370846 -0.0117733 0
0.00370783 -0.0117935 0
0.00336405 -0.0115194 0
0.0034746 -0.0116363 0
0.00370716 -0.0118138 0
0.00384326 -0.0118482 0
0.00342558 -0.0116116 0
0.00361069 -0.0117747 0
0.00370611 -0.0118433 0
0.00337305 -0.0115816 0
0.00365734 -0.0118445 0
0.00370498 -0.0118728 0
0.00330021 -0.0115372 0
0.00379803 -0.0119165 0
0.00353016 -0.0117769 0
0.00356899 -0.011814 0
0.00338196 -0.0116437 0
0.00330497 -0.011571 0
0.00370322 -0.011915 0
0.00349716 -0.0117833 0
0.00394272 -0.0119325 0
0.00331159 -0.0116183 0
0.00360518 -0.0118871 0
0.00400468 -0.0118646 0
0.0037013 -0.0119574 0
0.00339404 -0.0117284 0
0.00407812 -0.0114897 0
0.00332079 -0.0116843 0
0.0037578 -0.0120315 0
0.00345855 -0.0118361 0
0.0036983 -0.012017 0
0.00340595 -0.0118127 0
0.00375642 -0.0120592 0
0.00364894 -0.0120099 0
0.00351899 -0.0119295 0
0.00382071 -0.00988724 0
0.00388077 -0.0120887 0
0.00359812 -0.0120006 0
0.00333345 -0.0117761 0
0.00375427 -0.0121 0
0.00369495 -0.0120769 0
0.00342171 -0.0119259 0
0.00375091 -0.0121595 0
0.0032621 -0.0117909 0
0.00406665 -0.011856 0
0.00326452 -0.0118087 0
0.00368976 -0.0121597 0
0.00335062 -0.0119022 0
0.00326691 -0.0118265 0
0.00327022 -0.0118511 0
0.00403083 -0.0120876 0
0.00354614 -0.0121185 0
0.0032735 -0.0118755 0
0.00358632 -0.0121524 0
0.0034371 -0.0120386 0
0.00374559 -0.0122447 0
0.00327804 -0.0119096 0
0.00368387 -0.0122431 0
0.00349991 -0.0121305 0
0.00328254 -0.0119434 0
0.00363269 -0.0122367 0
0.00380008 -0.012315 0
0.00379918 -0.0123288 0
0.00328875 -0.0119904 0
0.00337339 -0.0120731 0
0.00391361 -0.0123276 0
0.00379826 -0.0123427 0
0.00379687 -0.0123633 0
0.00329488 -0.0120371 0
0.00345691 -0.0121868 0
0.00373702 -0.0123649 0
0.00379544 -0.0123838 0
0.00367478 -0.0123564 0
0.00357185 -0.012306 0
0.0037933 -0.0124136 0
0.00399338 -0.012335 0
0.00330323 -0.0121012 0
0.00410061 -0.0117866 0
0.00379109 -0.0124436 0
0.00331146 -0.012165 0
0.0037878 -0.0124863 0
0.00388029 -0.0124862 0
0.00180425 -0.00405742 0
0.00347601 -0.0123341 0
0.00405291 -0.0123091 0
0.0036644 -0.0124706 0
0.00320425 -0.0121133 0
0.00340272 -0.0123005 0
0.00378436 -0.0125291 0
0.00332249 -0.0122516 0
0.00372305 -0.0125318 0
0.00320919 -0.0121513 0
0.00310133 -0.00743721 0
0.00377928 -0.0125893 0
0.00321583 -0.0122028 0
0.0035491 -0.0125078 0
0.00333328 -0.0123376 0
0.00360244 -0.0125429 0
0.0032248 -0.012273 0
0.00394719 -0.012612 0
0.00377389 -0.0126497 0
0.00384433 -0.0126582 0
0.00349972 -0.012524 0
0.00364861 -0.0126232 0
0.00384198 -0.0126861 0
0.00334743 -0.0124524 0
0.00323687 -0.012369 0
0.00383842 -0.0127273 0
0.00376597 -0.0127331 0
0.00343908 -0.0125973 0
0.00370005 -0.0127599 0
0.00383301 -0.0127873 0
0.0040718 -0.0125375 0
0.00336117 -0.0125665 0
0.00375744 -0.0128169 0
0.00352213 -0.0127121 0
0.00325291 -0.0124992 0
0.00363056 -0.0127773 0
0.00411852 -0.0120803 0
0.00313676 -0.0124412 0
0.00382483 -0.0128731 0
0.00313932 -0.0124616 0
0.00314184 -0.0124819 0
0.00314521 -0.012509 0
0.00337869 -0.012716 0
0.00410833 -0.012411 0
0.00403514 -0.0127806 0
0.00374496 -0.0129307 0
0.00314854 -0.0125359 0
0.00397473 -0.0128932 0
0.00327379 -0.0126738 0
0.00315303 -0.0125724 0
0.00381238 -0.012994 0
0.00315745 -0.0126087 0
0.00388056 -0.0129968 0
0.0038792 -0.0130108 0
0.00387783 -0.0130248 0
0.00354876 -0.0129495 0
0.00360371 -0.0129795 0
0.00316343 -0.012658 0
0.00339547 -0.0128642 0
0.00373138 -0.0130452 0
0.00387577 -0.0130454 0
0.00387368 -0.0130661 0
0.00316931 -0.0127071 0
0.00408645 -0.0127637 0
0.00366219 -0.0130667 0
0.00348193 -0.0129759 0
0.00387059 -0.0130961 0
0.00317718 -0.0127735 0
0.00386743 -0.0131262 0
0.00330022 -0.0129042 0
0.00379334 -0.0131614 0
0.0038628 -0.0131691 0
0.0031849 -0.0128394 0
0.00371164 -0.013198 0
0.00394876 -0.0131611 0
0.00341617 -0.0130547 0
0.00385803 -0.0132121 0
0 0 0
0.00357318 -0.0131839 0
0.00319509 -0.012928 0
0.00385111 -0.0132724 0
0.00412643 -0.0123688 0
0.00304218 -0.0128502 0
0.00383252 -0.010452 0
0.00320501 -0.0130158 0
0.00400022 -0.0132228 0
0.00384392 -0.0133329 0
0.0030475 -0.0128943 0
0.00368994 -0.0133518 0
0.00308754 -0.00766521 0
0.00343561 -0.0132431 0
0.00305436 -0.0129517 0
0.00409785 -0.0129984 0
0.00376403 -0.0133895 0
0.00333243 -0.0132028 0
0.00383357 -0.0134163 0
0.00321785 -0.0131322 0
0.00391463 -0.0133965 0
0.00306331 -0.0130276 0
0.00391146 -0.0134245 0
0.00390668 -0.0134658 0
0.00382268 -0.0135 0
0.00360056 -0.0134728 0
0.00323024 -0.0132475 0
0.00352908 -0.0134473 0
0.00307502 -0.0131289 0
0.00406476 -0.0132742 0
0.00389953 -0.0135258 0
0.00365882 -0.0135535 0
0.00345856 -0.01348 0
0.00380713 -0.0136136 0
0.00309021 -0.0132638 0
0.00324586 -0.0133978 0
0.0038889 -0.0136115 0
0.00371878 -0.0136955 0
0.00410492 -0.0132304 0
0.00412583 -0.0129545 0
0.00401822 -0.013547 0
0.00336975 -0.0135814 0
0.00379061 -0.0137276 0
0.00412912 -0.0126544 0
0.00293646 -0.0132662 0
0.00387312 -0.0137321 0
0.00326071 -0.0135465 0
0.00293927 -0.0132902 0
0.00310956 -0.0134422 0
0.00362448 -0.0137569 0
0.00294204 -0.0133141 0
0.00347946 -0.0137136 0
0.00294557 -0.0133447 0
0.00294906 -0.0133751 0
0.00295359 -0.0134149 0
0.0039387 -0.0137884 0
0.00376719 -0.0138796 0
0.00393696 -0.0138023 0
0.00393522 -0.0138163 0
0.00295805 -0.0134544 0
0.00393261 -0.0138369 0
0.00384968 -0.0138987 0
0.00327883 -0.0137367 0
0.00392998 -0.0138575 0
0.00296389 -0.0135068 0
0.0039261 -0.0138873 0
0.00313357 -0.013675 0
0.00296962 -0.0135587 0
0.00392216 -0.0139173 0
0.00391642 -0.01396 0
0.00410842 -0.0134725 0
0.00374207 -0.0140324 0
0.00297712 -0.0136276 0
0.00357612 -0.0140186 0
0.00350271 -0.0140008 0
0.00391056 -0.0140027 0
0.00329571 -0.0139243 0
0.00298445 -0.0136961 0
0.00364913 -0.0140988 0
0.00399181 -0.0139371 0
0.00390212 -0.0140627 0
0.00341012 -0.0140503 0
0.00381483 -0.0141253 0
0.00299394 -0.0137864 0
0.00403063 -0.0139199 0
0.00389343 -0.0141227 0
0.00412471 -0.0129327 0
0.00316227 -0.0139739 0
0.00306312 -0.00788343 0
0.00300314 -0.0138761 0
0.00370685 -0.0142322 0
0.00407795 -0.0138191 0
0.00388107 -0.0142055 0
0.00331541 -0.0141595 0
0.00279621 -0.0137743 0
0.00352283 -0.0142827 0
0.00301487 -0.0139934 0
0.00280217 -0.0138271 0
0.00386822 -0.0142885 0
0.00410756 -0.0137111 0
0.00280948 -0.0138926 0
0.0039557 -0.0142384 0
0.00395188 -0.0142661 0
0.00302611 -0.0141095 0
0.00366879 -0.0144334 0
0.00376297 -0.0144281 0
0.00281862 -0.0139761 0
0.00394615 -0.0143071 0
0.0038501 -0.0144009 0
0.00333318 -0.0143908 0
0.00393765 -0.0143665 0
0.00412135 -0.013485 0
0.00319488 -0.0143499 0
0.00283015 -0.0140839 0
0.0030401 -0.0142594 0
0.00383111 -0.0145136 0
0.00392511 -0.0144514 0
0.00379929 -0.0109965 0
0.00354327 -0.0146211 0
0.00403417 -0.0142845 0
0.00284468 -0.014224 0
0.00344957 -0.0146158 0
0.004114 -0.0132081 0
0.00305331 -0.0144075 0
0.00361621 -0.0146917 0
0.00390673 -0.0145706 0
0.00380459 -0.0146635 0
0.00410252 -0.0139615 0
0.0033527 -0.0146743 0
0.00286272 -0.0144056 0
0 0 0
0.00306921 -0.0145957 0
0.00368599 -0.0148259 0
0.00264382 -0.0142904 0
0.00387986 -0.0147351 0
0.00377654 -0.0148141 0
0.00264701 -0.0143196 0
0.00265017 -0.0143485 0
0.0017691 -0.00433613 0
0.00396083 -0.0146763 0
0.00265399 -0.0143838 0
0.00322938 -0.0148126 0
0.00395883 -0.0146901 0
0.00395681 -0.0147038 0
0.00265775 -0.014419 0
0.00355923 -0.0149517 0
0.0039538 -0.0147242 0
0.00288462 -0.0146391 0
0.00308391 -0.014781 0
0.00266242 -0.014463 0
0.00395077 -0.0147445 0
0.00336934 -0.014952 0
0.00394632 -0.014774 0
0.00266702 -0.0145068 0
0.00394181 -0.0148035 0
0.0037378 -0.0150106 0
0.00267281 -0.0145626 0
0.00384066 -0.0149582 0
0.00393527 -0.0148456 0
0.00406956 -0.0144153 0
0.00301982 -0.00809864 0
0.00267848 -0.0146181 0
0.00409316 -0.0142076 0
0.00392862 -0.0148878 0
0.00409852 -0.0134754 0
0.00268569 -0.0146897 0
0.00391909 -0.0149468 0
0.00310084 -0.015012 0
0.00402824 -0.0146949 0
0.00399678 -0.0148007 0
0.0026927 -0.0147607 0
0.00390933 -0.015006 0
0.00291027 -0.0149353 0
0.00369653 -0.0152081 0
0.00270157 -0.0148525 0
0.00348202 -0.0152791 0
0.00389552 -0.0150874 0
0.00338592 -0.0152844 0
0.00409669 -0.0140014 0
0.00378361 -0.0152555 0
0.00357265 -0.0153388 0
0.00271014 -0.0149435 0
0.00388126 -0.0151689 0
0.00311595 -0.0152388 0
0.0032622 -0.0153674 0
0.00272085 -0.0150606 0
0.0038613 -0.0152792 0
0.0036403 -0.015461 0
0.00407875 -0.0144666 0
0.00245071 -0.0149065 0
0.00293883 -0.0153045 0
0.00395398 -0.015165 0
0.00273108 -0.0151764 0
0.00245757 -0.0149709 0
0.00394974 -0.0151922 0
0.00384055 -0.0153896 0
0.00394341 -0.0152325 0
0.0040761 -0.0137393 0
0.00246557 -0.0150473 0
0.0031323 -0.0155154 0
0.00339848 -0.0156086 0
0.00393403 -0.0152909 0
0.0027436 -0.0153241 0
0.0024751 -0.0151402 0
0.00381181 -0.0155364 0
0.00370084 -0.0156446 0
0.00392028 -0.0153742 0
0.00401236 -0.0150933 0
0.00358012 -0.0157151 0
0.00248662 -0.0152556 0
0.00275537 -0.0154698 0
0.00390025 -0.0154911 0
0.00378168 -0.0156834 0
0.00314603 -0.0157861 0
0.0025006 -0.0154009 0
0.00406009 -0.0147206 0
0.00296841 -0.0157551 0
0.00276934 -0.0156531 0
0.00387122 -0.015652 0
0.00297023 -0.00830255 0
0.0037262 -0.0115113 0
0.00340846 -0.0159872 0
0.00374046 -0.0158751 0
0.00403399 -0.0150587 0
0.00251747 -0.0155844 0
0.00328802 -0.0160148 0
0.00349951 -0.0160343 0
0.00405029 -0.013995 0
0.00278217 -0.0158336 0
0.00382934 -0.0158699 0
0.0031594 -0.0161088 0
0.00393403 -0.0156365 0
0.00224555 -0.0155299 0
0.00393187 -0.01565 0
0.00392971 -0.0156635 0
0.00369695 -0.0160673 0
0.00405331 -0.0145032 0
0.00224927 -0.0155657 0
0.00358167 -0.0161443 0
0.00392649 -0.0156834 0
0.00253742 -0.0158157 0
0.00392324 -0.0157033 0
0.00225294 -0.0156013 0
0.00391849 -0.0157322 0
0.00225716 -0.0156427 0
0.00391368 -0.0157611 0
0.00279677 -0.0160567 0
0.00226132 -0.0156838 0
0.00390672 -0.0158023 0
0.00226622 -0.0157331 0
0.00389965 -0.0158436 0
0.00403537 -0.014988 0
0.00227104 -0.015782 0
0.00398346 -0.0155309 0
0.00341318 -0.0163548 0
0.00388955 -0.0159013 0
0.00299582 -0.0162919 0
0.00227686 -0.0158419 0
0.00376914 -0.0161594 0
0.00387923 -0.015959 0
0.00363821 -0.016313 0
0.00256031 -0.0161047 0
0.00228254 -0.0159014 0
0.0028097 -0.0162756 0
0.00316919 -0.0164231 0
0.00395225 -0.0157281 0
0 0 0
0.00386469 -0.0160385 0
0.00228949 -0.0159755 0
0.00401769 -0.0142464 0
0.00384972 -0.016118 0
0.00229624 -0.016049 0
0.00230452 -0.0161412 0
0.00382887 -0.0162254 0
0.00357589 -0.0165594 0
0.0028235 -0.016541 0
0.00231251 -0.0162327 0
0.00258533 -0.0164605 0
0.00380727 -0.0163328 0
0.00368303 -0.0165371 0
0.00329999 -0.0167487 0
0.00400647 -0.0152493 0
0.00232224 -0.0163477 0
0.00317645 -0.016789 0
0.00341236 -0.016773 0
0.00290481 -0.00849904 0
0.0037775 -0.0164754 0
0.00389822 -0.0161469 0
0.00233152 -0.0164615 0
0.00389384 -0.0161735 0
0.00283497 -0.0168005 0
0.00388729 -0.0162129 0
0.00199636 -0.016255 0
0.00349312 -0.016868 0
0.0030165 -0.016915 0
0.00387761 -0.0162699 0
0.00374646 -0.016618 0
0.00234266 -0.016604 0
0.00200439 -0.0163341 0
0.00394412 -0.0159523 0
0.00398218 -0.0144899 0
0.00386345 -0.0163512 0
0.00201329 -0.0164237 0
0.00399238 -0.0149896 0
0.00261082 -0.0168908 0
0.00396598 -0.0157402 0
0.00235312 -0.0167448 0
0.00384289 -0.0164651 0