# vtk DataFile Version 3.0
File generated from DClib
ASCII

DATASET UNSTRUCTURED_GRID
POINTS 1909 float
50 0 0 
48.75 0 0 
50 1.66667 0 
47.5 0 0 
50 3.33333 0 
46.25 0 0 
50 5 0 
45 0 0 
43.75 0 0 
50 6.66667 0 
43 2 0 
42.5 0 0 
50 8.33333 0 
43 4.66667 0 
41.25 0 0 
41.075 2 0 
50 10 0 
40 0 0 
43 7.33333 0 
39.15 2 0 
38.75 0 0 
43 10 0 
37.5 0 0 
37.225 2 0 
36.25 0 0 
36 4 0 
35.3 2 0 
36 5 0 
35 0 0 
35.325 4 0 
36 6 0 
36 7 0 
34.65 4 0 
36 8 0 
33.75 0 0 
33.975 4 0 
36 9 0 
33.375 2 0 
33.3 4 0 
36 10 0 
32.5 0 0 
32.625 4 0 
33 6 0 
31.95 4 0 
33 7.45455 0 
31.45 2 0 
31.25 0 0 
31.95 6 0 
33 8.79545 0 
31.275 4 0 
33 10 0 
30.6 4 0 
30 0 0 
30.9 6 0 
29.925 4 0 
29.525 2 0 
29.85 6 0 
29.25 4 0 
28.75 0 0 
30 8 0 
30 8.45455 0 
28.575 4 0 
29.625 8 0 
30 8.90909 0 
28.8 6 0 
30 9.25 0 
29.782 8.90909 0 
30 9.59091 0 
29.9487 9.59091 0 
29.25 8 0 
29.7462 9.25 0 
30 9.79545 0 
29.897 9.59091 0 
29.564 8.90909 0 
29.9547 9.79545 0 
29.3462 8.45455 0 
29.84 9.59091 0 
30 10 0 
29.8975 9.79545 0 
29.9882 10 0 
29.9902 10.0098 0 
29.7827 9.59091 0 
29.9765 10 0 
29.9804 10.0196 0 
29.9667 10.0098 0 
29.9591 10 0 
29.9686 10.0196 0 
29.9659 10.0341 0 
29.9569 10.0196 0 
29.9418 10 0 
29.9395 10.0196 0 
29.9515 10.0485 0 
29.932 10.0098 0 
29.9424 10.0341 0 
29.8241 9.79545 0 
29.7181 9.59091 0 
29.9166 10 0 
29.9397 10.0485 0 
29.9222 10.0196 0 
29.9279 10.0485 0 
29.9305 10.0695 0 
29.8914 10 0 
29.9077 10.0341 0 
27.9 4 0 
29.897 10.0196 0 
29.9106 10.0485 0 
29.8817 10.0098 0 
29.907 10.0695 0 
29.8933 10.0485 0 
29.9095 10.0905 0 
29.8719 10.0196 0 
27.6 2 0 
29.8556 10 0 
29.8978 10.0905 0 
29.6531 9.59091 0 
29.3437 8.90909 0 
27.5 0 0 
29.8681 10.0485 0 
29.886 10.0905 0 
29.8574 10.0341 0 
29.4839 9.25 0 
29.8723 10.0695 0 
29.7289 9.79545 0 
29.836 10.0196 0 
29.8687 10.0905 0 
29.8197 10 0 
29.8797 10.1203 0 
29.843 10.0485 0 
29.8513 10.0905 0 
29.81 10.0098 0 
29.8561 10.1203 0 
29.8002 10.0196 0 
29.8221 10.0695 0 
29.8072 10.0485 0 
29.8262 10.0905 0 
29.5782 9.59091 0 
29.8498 10.1502 0 
29.7695 10 0 
29.7858 10.0341 0 
29.838 10.1502 0 
29.8215 10.1203 0 
29.8011 10.0905 0 
29.8262 10.1502 0 
29.7714 10.0485 0 
28.875 8 0 
29.75 10.0196 0 
29.8089 10.1502 0 
29.7654 10.0905 0 
29.7193 10 0 
29.7916 10.1502 0 
29.7505 10.0695 0 
29.8079 10.1921 0 
29.7713 10.1203 0 
29.7096 10.0098 0 
29.6047 9.79545 0 
29.503 9.59091 0 
29.7213 10.0485 0 
29.7665 10.1502 0 
29.6999 10.0196 0 
29.7844 10.1921 0 
29.7296 10.0905 0 
29.6856 10.0341 0 
29.7414 10.1502 0 
29.7497 10.1921 0 
29.6503 10 0 
29.7661 10.2339 0 
29.6712 10.0485 0 
29.6999 10.1203 0 
29.7543 10.2339 0 
29.6796 10.0905 0 
29.7057 10.1502 0 
29.7425 10.2339 0 
29.1235 8.90909 0 
29.6309 10.0196 0 
29.6504 10.0695 0 
29.4146 9.59091 0 
29.7252 10.2339 0 
29.6996 10.1921 0 
29.6701 10.1502 0 
29.7079 10.2339 0 
29.6296 10.0905 0 
29.5813 10 0 
29.6023 10.0485 0 
29.5716 10.0098 0 
29.6828 10.2339 0 
29.7086 10.2914 0 
29.2101 9.25 0 
29.562 10.0196 0 
29.6201 10.1502 0 
29.6578 10.2339 0 
29.4428 9.79545 0 
29.5999 10.1203 0 
29.6849 10.2914 0 
29.6283 10.1921 0 
29.5477 10.0341 0 
29.3259 9.59091 0 
29.5608 10.0905 0 
29.5335 10.0485 0 
29.6221 10.2339 0 
29.6503 10.2914 0 
29.5702 10.1502 0 
29.4881 10 0 
29.5128 10.0695 0 
29.6511 10.3489 0 
29.5866 10.2339 0 
29.6392 10.3489 0 
29.4689 10.0196 0 
29.6002 10.2914 0 
29.6273 10.3489 0 
29.4921 10.0905 0 
29.61 10.3489 0 
29.5286 10.1921 0 
29.5016 10.1502 0 
29.5368 10.2339 0 
29.5926 10.3489 0 
29.4405 10.0485 0 
29.2199 9.59091 0 
29.4626 10.1203 0 
29.3949 10 0 
28.9 8.90909 0 
29.5676 10.3489 0 
29.5291 10.2914 0 
29.3853 10.0098 0 
28.6923 8.45455 0 
29.487 10.2339 0 
29.5426 10.3489 0 
29.3758 10.0196 0 
29.5734 10.4266 0 
29.4331 10.1502 0 
29.3993 10.0905 0 
28.5 8 0 
29.3617 10.0341 0 
29.5496 10.4266 0 
29.5071 10.3489 0 
29.2327 9.79545 0 
29.3475 10.0485 0 
29.1136 9.59091 0 
29.4187 10.2339 0 
29.5148 10.4266 0 
29.4716 10.3489 0 
29.3918 10.1921 0 
29.3271 10.0695 0 
29.4298 10.2914 0 
29.2714 10 0 
29.3406 10.1502 0 
28.9208 9.25 0 
29.3066 10.0905 0 
29.4648 10.4266 0 
29.422 10.3489 0 
29.4958 10.5042 0 
29.2524 10.0196 0 
27.75 6 0 
29.3504 10.2339 0 
29.4837 10.5042 0 
29.4718 10.5042 0 
29.2774 10.1203 0 
29.4543 10.5042 0 
29.3724 10.3489 0 
29.2244 10.0485 0 
29.4369 10.5042 0 
29.3938 10.4266 0 
28.9853 9.59091 0 
29.2481 10.1502 0 
28.6766 8.90909 0 
29.4119 10.5042 0 
29.2934 10.2914 0 
27.225 4 0 
29.148 10 0 
29.2582 10.2339 0 
29.1837 10.0905 0 
29.3869 10.5042 0 
29.1385 10.0098 0 
29.3044 10.3489 0 
29.1291 10.0196 0 
29.2072 10.1921 0 
29.3514 10.5042 0 
29.1152 10.0341 0 
29.3929 10.6071 0 
29.2949 10.4266 0 
29.1013 10.0485 0 
29.3686 10.6071 0 
29.316 10.5042 0 
29.2364 10.3489 0 
28.9623 9.79545 0 
29.1257 10.1502 0 
29.1662 10.2339 0 
29.0811 10.0695 0 
28.8566 9.59091 0 
29.3336 10.6071 0 
29.2666 10.5042 0 
29.0609 10.0905 0 
28.9875 10 0 
29.2835 10.6071 0 
29.1448 10.3489 0 
29.0321 10.1203 0 
29.2173 10.5042 0 
29.1098 10.2914 0 
28.125 8 0 
28.9688 10.0196 0 
29.1594 10.4266 0 
28.611 9.25 0 
29.29 10.71 0 
28.4486 8.90909 0 
29.0443 10.2339 0 
29.0033 10.1502 0 
29.2777 10.71 0 
28.9413 10.0485 0 
29.2128 10.6071 0 
29.2655 10.71 0 
29.1497 10.5042 0 
29.2478 10.71 0 
28.7003 9.59091 0 
29.0533 10.3489 0 
29.2303 10.71 0 
28.9629 10.1921 0 
28.9013 10.0905 0 
29.2051 10.71 0 
29.0822 10.5042 0 
29.1801 10.71 0 
28.827 10 0 
29.1144 10.6071 0 
28.8177 10.0098 0 
28.9225 10.2339 0 
28.8085 10.0196 0 
29.1447 10.71 0 
28.7949 10.0341 0 
28.8443 10.1502 0 
28.977 10.4266 0 
28.9322 10.3489 0 
29.1094 10.71 0 
28.7813 10.0485 0 
28.9912 10.5042 0 
29.1562 10.8438 0 
28.5436 9.59091 0 
28.7615 10.0695 0 
28.8669 10.2914 0 
29.1313 10.8438 0 
28.6184 9.79545 0 
29.0602 10.71 0 
28.2207 8.90909 0 
28.7418 10.0905 0 
28.0378 8.45455 0 
28.9798 10.6071 0 
29.0958 10.8438 0 
29.0112 10.71 0 
28.9005 10.5042 0 
28.7136 10.1203 0 
28.7644 10.2339 0 
28.8113 10.3489 0 
29.0454 10.8438 0 
28.6223 10 0 
28.6854 10.1502 0 
28.2746 9.25 0 
28.9441 10.71 0 
28.6042 10.0196 0 
27.75 8 0 
28.9747 10.8438 0 
28.6459 10.1921 0 
28.5773 10.0485 0 
29.0225 10.9775 0 
28.3532 9.59091 0 
28.7804 10.5042 0 
28.736 10.4266 0 
28.8772 10.71 0 
29.0097 10.9775 0 
28.9971 10.9775 0 
28.799 10.6071 0 
28.9791 10.9775 0 
28.5384 10.0905 0 
28.6064 10.2339 0 
28.6543 10.3489 0 
28.9611 10.9775 0 
28.8769 10.8438 0 
27.9867 8.90909 0 
26.25 0 0 
28.9358 10.9775 0 
28.7871 10.71 0 
28.9106 10.9775 0 
28.6607 10.5042 0 
28.4177 10 0 
26.55 4 0 
28.552 10.2914 0 
28.483 10.1502 0 
28.4087 10.0098 0 
28.8751 10.9775 0 
28.3998 10.0196 0 
28.3866 10.0341 0 
28.8399 10.9775 0 
28.6974 10.71 0 
28.3735 10.0485 0 
28.1625 9.59091 0 
28.7436 10.8438 0 
28.4976 10.3489 0 
28.3543 10.0695 0 
28.791 10.9775 0 
28.4052 10.2339 0 
28.3352 10.0905 0 
28.8519 11.1481 0 
28.1869 9.79545 0 
28.5607 10.6071 0 
28.5053 10.5042 0 
28.7423 10.9775 0 
28.8258 11.1481 0 
28.308 10.1203 0 
28.5787 10.71 0 
27.904 9.25 0 
28.7893 11.1481 0 
28.424 10.4266 0 
27.7528 8.90909 0 
28.2807 10.1502 0 
28.6758 10.9775 0 
27.375 8 0 
28.7383 11.1481 0 
28.1619 10 0 
28.5649 10.8438 0 
28.2425 10.1921 0 
28.6096 10.9775 0 
28.1444 10.0196 0 
28.298 10.3489 0 
28.4605 10.71 0 
26.7 6 0 
27.9315 9.59091 0 
28.3503 10.5042 0 
28.6676 11.1481 0 
28.1187 10.0485 0 
28.2042 10.2339 0 
28.5207 10.9775 0 
28.0813 10.0905 0 
28.6814 11.3186 0 
27.3818 8.45455 0 
28.6679 11.3186 0 
28.1516 10.2914 0 
28.5703 11.1481 0 
28.6544 11.3186 0 
28.6358 11.3186 0 
27.5109 8.90909 0 
28.3072 10.71 0 
28.6173 11.3186 0 
28.2524 10.6071 0 
28.4322 10.9775 0 
28.028 10.1502 0 
28.5915 11.3186 0 
28.0989 10.3489 0 
28.33 10.8438 0 
28.5658 11.3186 0 
28.153 10.5042 0 
27.9061 10 0 
27.8975 10.0098 0 
28.5303 11.3186 0 
28.4384 11.1481 0 
27.7002 9.59091 0 
27.889 10.0196 0 
27.8765 10.0341 0 
28.4949 11.3186 0 
28.3154 10.9775 0 
27.9532 10.2339 0 
27.8639 10.0485 0 
28.0276 10.4266 0 
28.1544 10.71 0 
27.8457 10.0695 0 
27.4909 9.25 0 
28.4463 11.3186 0 
27 8 0 
27.8275 10.0905 0 
28.3979 11.3186 0 
27.8015 10.1203 0 
27.6542 9.79545 0 
25.675 2 0 
28.1991 10.9775 0 
27.2691 8.90909 0 
27.9563 10.5042 0 
28.4682 11.5318 0 
28.2625 11.1481 0 
27.7755 10.1502 0 
28.3322 11.3186 0 
27.8502 10.3489 0 
28.4401 11.5318 0 
25.875 4 0 
27.7391 10.1921 0 
28.4019 11.5318 0 
28.0268 10.8438 0 
28.2668 11.3186 0 
27.9602 10.71 0 
28.3498 11.5318 0 
27.4223 9.59091 0 
27.7026 10.2339 0 
27.5927 10 0 
28.0486 10.9775 0 
27.8616 10.6071 0 
27.5762 10.0196 0 
28.1794 11.3186 0 
28.2786 11.5318 0 
27.5519 10.0485 0 
27.6524 10.2914 0 
28.0319 11.1481 0 
27.7108 10.5042 0 
27.5167 10.0905 0 
27.0169 8.90909 0 
28.0924 11.3186 0 
27.6021 10.3489 0 
27.8988 10.9775 0 
28.1818 11.5318 0 
27.7667 10.71 0 
26.625 8 0 
28.255 11.745 0 
27.4664 10.1502 0 
28.2402 11.745 0 
28.2256 11.745 0 
28.2059 11.745 0 
27.978 11.3186 0 
26.7234 8.45455 0 
27.0259 9.25 0 
27.5342 10.4266 0 
28.1863 11.745 0 
27.1442 9.59091 0 
28.0516 11.5318 0 
28.1598 11.745 0 
27.3959 10.2339 0 
28.1334 11.745 0 
27.2793 10 0 
27.2714 10.0098 0 
27.2635 10.0196 0 
27.7086 10.9775 0 
27.6431 10.8438 0 
28.0975 11.745 0 
27.8643 11.3186 0 
27.4661 10.5042 0 
27.2518 10.0341 0 
27.2401 10.0485 0 
28.0617 11.745 0 
26.7648 8.90909 0 
27.5255 10.71 0 
27.7353 11.1481 0 
27.2231 10.0695 0 
28.0133 11.745 0 
27.2061 10.0905 0 
27.8791 11.5318 0 
27.2986 10.3489 0 
27.1818 10.1203 0 
27.9651 11.745 0 
27.3758 10.6071 0 
27.0077 9.79545 0 
27.7174 11.3186 0 
27.1576 10.1502 0 
25 0 0 
27.5193 10.9775 0 
27.9003 11.745 0 
27.1236 10.1921 0 
26.25 8 0 
27.9939 12.0061 0 
25.65 6 0 
27.8359 11.745 0 
26.8136 9.59091 0 
27.0896 10.2339 0 
27.9626 12.0061 0 
27.2853 10.71 0 
25.2 4 0 
27.5713 11.3186 0 
27.9218 12.0061 0 
26.4998 8.90909 0 
27.167 10.5042 0 
27.6541 11.5318 0 
27.0427 10.2914 0 
27.7503 11.745 0 
26.9033 10 0 
27.8677 12.0061 0 
26.8882 10.0196 0 
26.8659 10.0485 0 
26.9958 10.3489 0 
27.2836 10.9775 0 
27.6652 11.745 0 
27.3609 11.1481 0 
27.7955 12.0061 0 
26.499 9.25 0 
[...]
POINT_DATA 1909
SCALARS phi float 1
LOOKUP_TABLE default
-23467.6
-15281.4
-3460.63
-9946.15
-3487.07
-8975.65
-3352.63
-5499.65
-4532.49
-3446.83
-27610.1
-2535.64
-3636.77
-3515.52
-1749.25
-13215.3
-3860.32
-794.594
-2853.05
-9477.24
-305.206
-2713.74
-12.915
-6672.52
153.521
-33145.4
-4637.44
-1048.06
119.72
-23876.8
-1765.1
-1746.25
-17493.3
-1821.65
57.4413
-19713
-1773.13
-3248.73
-14869.1
-1670.64
-24.9621
-16862.4
-750.547
-12892.1
-983.109
-2392.02
-120.276
-295.992
-924.988
-14774
-836.796
-11466.4
-92.6234
-320.38
-13338.6
-1977.34
-413.984
-10552.5
-62.0271
-16.6527
-7.37447
-12487.3
-158.598
-0.755754
-545.828
2.44676
-479.724
-111.967
-87.7414
-201.354
-301.414
-98.99
-92.5265
-504.297
-62.1242
-985.071
-88.7732
-83.9658
-70.7996
-31.719
1.02415
-96.301
-54.0243
0.966281
0.788102
-48.99
-0.120363
0.462734
0.0800294
-77.4044
0.290052
0.342662
0.561671
0.154515
-79.4486
-94.6668
-65.488
-0.0800204
1.0721
0.725271
-3.27744
-93.6328
0.695455
-10090.8
1.06314
0.371498
0.284724
-2.01284
0.899724
-2.56975
0.678975
-1972.57
-80.1611
-3.7632
-111.658
-509.441
1.72386
0.76182
-1.1901
1.04554
-319.616
-0.584755
-99.0944
0.594789
-1.56933
-107.15
-8.55776
1.01381
0.0992372
0.0930113
-5.33344
0.177276
0.303661
1.01635
-0.16735
-114.047
-5.05082
-98.0828
0.923043
-6.14059
-2.89189
0.5912
-2.77011
0.969558
-268.639
0.269523
-3.74175
0.393776
-141.952
-1.58602
0.804313
-10.5286
-1.48868
0.124761
-140.041
-144.599
0.980878
-2.45743
0.169177
-8.34615
0.837011
0.798538
-0.760701
-6.58877
-137.614
-5.75122
0.825088
-0.494297
-8.43317
0.775426
-1.34564
-5.23216
-533.45
0.175711
1.00314
-149.351
-7.62327
-4.95512
-0.0565658
-4.53895
1.01038
-212.161
0.832395
0.0235214
-6.59139
-14.4926
-370.302
0.0118507
-0.502667
-3.74507
-213.043
0.280101
-13.7079
-3.53212
0.601353
-198.005
0.99624
0.61103
-5.51923
-12.6624
0.336874
-206.763
1.01365
-10.1629
-3.07304
-14.7721
-0.00692761
-11.477
-10.1129
1.01413
-14.689
-2.55084
-0.0191723
-4.55896
-10.1055
0.666979
-203.024
0.586473
-316.368
-549.325
-14.522
-10.3539
-0.0234749
-1063.74
-2.50448
-9.96691
-0.0343015
-23.2725
0.558859
1.02224
-329.369
0.525228
-23.3862
-14.1231
-324.877
0.542304
-274.874
-3.77124
-23.4066
-9.63261
-1.89244
0.982912
-9.36249
-316.767
0.293316
-437.142
0.991041
-23.3077
-13.418
-19.5671
-0.00463455
-687.379
-1.95277
-27.4392
-20.066
0.747963
-28.1189
-9.05927
0.634865
-20.6216
-22.997
-279.133
0.713128
-590.276
-28.7569
-8.33568
-12134.5
-500.847
-3.01003
1.01771
-21.0851
0.0538093
-12.4472
0.0500358
-1.34054
-29.1792
0.571644
-40.2386
-22.3796
0.579614
-41.1205
-21.3565
-8.29957
-496.326
0.466521
-1.46256
0.984838
-382.781
-42.09
-29.2316
0.989531
-507.087
-43.076
-11.2811
0.783694
-21.3084
-7.31528
-383.253
0.0833247
-21.3904
-513.65
-36.4982
-599.132
-2.45596
0.759064
-49.5724
0.66457
-43.9333
-37.4573
-28.7855
-50.8988
-383.84
-7.50241
-38.5674
-1.08257
1.01776
-52.4028
-20.9097
-39.8119
-800.232
-44.4602
0.142167
-1.19027
0.136937
-54.0078
0.633557
0.526644
-20.1872
-10.2543
-41.1061
0.634023
-27.8534
-68.7819
-528.123
0.997312
-6.60225
-70.6063
-744.306
-55.5273
-638.757
0.998827
-1114.43
-44.4786
-72.7173
-42.2781
-20.2083
0.783472
-2.13421
-6.83779
-75.1168
-806.283
0.771176
-599.188
-56.679
0.14177
-431.508
-77.7121
-0.963089
0.687614
-64.2588
-522.907
-26.6665
-18.9976
-43.1044
-85.5885
-66.1722
-43.936
-88.2152
1.01992
-1.03101
-9.42109
-68.3903
-80.2834
-636.187
-75.2529
-91.2627
-57.1618
-70.9672
-19.2778
-1232.93
-10001.4
-6.09939
0.573455
0.153659
-94.7464
0.146128
0.639787
-73.8786
-43.3449
0.635144
-715.917
-82.4804
-6.28762
0.99771
-98.543
-1.86198
0.99715
-114.507
-1076.56
-42.807
-25.2929
-76.9706
-118.033
0.818017
-56.7834
-695.763
-122.062
-17.8294
-673.03
0.81624
-102.328
-468.406
-126.679
-1228.53
-83.8731
-0.77242
-79.9168
0.0907168
-8.59996
-42.805
-823.385
-700.476
-18.1602
-131.881
0.645335
-0.800452
-105.552
1.01447
-109.524
-1126.08
-144.038
-5.48266
-137.485
-113.257
-149.039
-659.057
-55.4192
-117.44
-41.0214
-82.2068
0.682871
-154.697
-5.59424
-83.9873
-122.21
-23.5886
-1797.47
-0.00545889
-161.127
-143.045
-946.7
-0.0161313
0.526784
-127.607
-107.498
-1.44572
0.517055
-16.3612
-41.3414
0.958727
-804.969
-168.288
-508.201
0.954931
-133.522
0.922293
-1486.52
-2459.33
-83.2039
-694.594
-16.6264
-186.982
-147.794
0.926764
-175.881
-7.49846
-193.667
-12158.3
-0.371763
-201.059
-82.3203
-139.592
-52.8314
-209.31
-915.967
-0.368242
-1766.83
-107.443
-38.3041
-0.177321
-183.21
-218.481
0.454212
-4.47232
-150.68
-21.2367
0.958227
-670.475
-145.088
-4.50684
-82.2401
-228.427
-38.7127
-541.218
-182.53
0.877419
-238.121
-189.747
-247.548
-189.104
-1101.81
-926.797
-14.1916
-197.53
-1212.11
-238.634
-257.819
-0.762817
-206.08
-2458.93
-0.498843
-0.513773
-104.657
-78.3645
-269.11
-148.887
-14.3381
0.157118
0.140159
-215.46
-706.301
-48.6687
-150.449
0.776028
-281.406
0.764617
-248.053
-5.87052
1.0418
-225.562
-34.2123
-1945.53
-192
1.0442
-414.413
-78.7014
-294.379
0.26197
-572.016
-301.421
-936.019
-235.944
-1160.4
0.282191
-314
-34.542
-10155.9
-149.577
-327.401
-673.472
-17.8955
-255.016
-2.93318
-307.164
-2381.4
-341.769
-0.86987
-0.0729547
-2.90955
-98.4689
-245.643
-145.855
-357.127
-1058.52
0.694705
-71.5943
-190.195
-11.0604
-373.242
-318.156
1.04755
-42.5509
-710.853
-1051.3
-1491.56
-257.331
-11.0865
-601.038
-300.689
0.148053
-253.04
-390.327
-389.416
-72.0539
-314.496
-145.716
-407.942
-328.824
-426.349
-3140.72
-28.4107
-1.64775
-1.66867
-343.877
-0.77589
-3.66345
-324.942
-0.803775
-445.659
0.162435
-404.234
-359.603
0.13659
0.91756
-670.793
-28.5791
-465.683
-135.916
-182.163
0.905641
-255.896
-375.712
-88.3994
-2399.49
0.911456
-252.626
-13.4374
-485.831
-1413.76
0.926788
-621.622
-415.375
-12366.2
-391.496
-61.6774
-1193.79
-1.02468
-324.581
-481.971
-136.188
-504.851
-505.104
-0.977201
-710.172
-528.889
-2995.2
-2.37308
-405.593
-62.0407
-34.3572
-553.269
-1.3166
-7.0686
-251.713
-0.148109
-984.631
-419.657
-577.964
-520.546
-7.01416
0.833733
-997.563
-166.971
-1752.19
-602.337
-238.952
-646.507
-415.793
-120.223
0.945786
-20.999
-664.538
-314.242
-625.165
-1712.66
-529.648
-74.4389
-491.867
-1.19991
-21.0139
-636.463
-517.454
-3713.42
-3731.72
-668.387
-413.486
-3.98482
-4.01187
-543.002
-120.586
-2.8105
-644.375
-419.053
-700.327
-2.85202
-238.398
-1.43027
-568.584
-1.47665
-48.8586
-732.051
-8.20069
-0.0125235
-1322.12
-10349.5
-593.719
-705.501
-0.0503407
-655.527
-762.76
0.995808
-528.06
-1645.19
-2775.07
-617.551
0.984237
-656.85
-49.0363
-791.103
-215.485
0.643674
-292.077
-909.694
-24.5598
-144.697
-638.696
0.675514
-411.896
-393.76
-814.954
-2.88271
-99.3278
-656.185
-761.389
-658.498
-3503.26
-655.038
-801.744
-5.25785
-2.80924
-3.8674
-673.044
-841.892
-511.686
-215.069
-2.18868
-831.191
-881.182
-12.7863
-57.4144
-0.421931
-1953.18
-99.5782
-918.527
-663.61
0.915507
-12.7188
-391.312
-952.302
-697.658
-644.814
-835.663
0.71899
-12532.9
-968.622
-258.035
-34.2863
-1429.01
-980.171
-359.014
-183.101
-668.178
-660.689
-3.13619
-477.724
-4110.93
-791.61
-8.15085
-8.17751
-34.3132
-831.658
-1021.57
-116.774
-6.61318
-998.931
-6.66504
-835.96
-4.71425
-1075.73
-4.78117
-823.541
-878.546
-2.52984
-1127.56
-2.59679
-646.552
-919.108
-1816.61
-182.655
-0.362761
-611.995
-1176.02
-14.4068
-0.411533
-75.0346
-1004.48
-956.192
-642.317
-355.914
-2995.53
-3171.79
1.05974
-1218.95
-671.95
1.05051
-987.736
-1253.46
0.289408
-75.1224
-790.26
-1011.06
-992.109
0.331652
-39.1576
-310.345
-686.651
-1275.84
-425.935
-214.289
-10400.8
-5.28877
-3794.7
-1022.82
-10.08
-605.298
-8.33003
-1168.67
-144.567
-558.351
-6.09986
-5.21751
-1281.68
-1232.88
-2053.1
-650.502
-3.48706
-1294.73
-752.534
-957.201
-1496.38
-1019.19
-0.845063
-20.0029
-1352.42
-306.859
-86.031
-732.948
-1403.36
0.998218
-635.302
-144.029
-1266.07
-19.9643
-819.18
-1444.2
-996.131
0.377941
-6286.14
-548.459
-1470.79
-632.89
-50.2786
-896.48
-1224.32
-359.295
-4179.4
-14.531
-14.5383
-12.6034
-251.63
-12.6494
-5.72001
-485.469
-10.1725
-1478.32
-10.2477
-7.22517
-1887.38
-670.801
-1224.74
-50.2486
-7.31073
-12668
-950.163
-1575.31
-165.073
-3.91595
-1293.42
-651.905
-3.99243
-1657.35
-1356.62
-0.751825
-1461.65
-1732.18
-2998.24
-0.798861
-1413.67
-22.2273
-1152.91
-671.652
-1797.53
-593.285
-248.042
-104.173
1.16165
-1461.52
-809.421
1.16008
-1849.08
-473.694
-7594.54
-1496.23
-1416
-879.354
-0.234337
-1881.55
-619.894
-103.554
-1513.19
-0.196309
-1502.21
-56.2209
-1889.02
-3776.63
-16.9217
-14.8504
-2015.91
-1050.95
-8.39052
-398.48
-12.122
-1507.48
-283.685
-551.741
-1337.97
-8.73508
-551.363
-1865.51
-8.3441
-4.89399
-1697.72
-188.879
-10500.7
-1786.33
-1474.36
-784.462
-1.18127
-577.145
-699.244
-646.021
-1868.73
-28.4461
-1805.8
1.15255
-1941.53
-115.867
-587.073
-1226.82
-386.157
-2000.08
-1410.17
-28.3437
-185.405
-496.169
-921.267
-0.219556
-2038.83
-1706.55
-3878.03
-22.6902
-66.8004
-2051.44
-22.6556
-20.3959
-1815.82
-20.4103
-17.483
-17.5419
-1313.33
-13.8776
-9.13447
-669.562
-13.9604
-594.178
-9.61129
-439.039
-2031.36
-9.69515
-305.217
-1085.39
-4.99301
-66.1022
-1567.63
-572.9
-436.728
-5.05746
-1767.67
-206.721
-2739.62
-0.824168
-2262.64
-13435.7
-1857.22
-1972.73
-0.853607
-2366.82
-31.0653
-1418.57
-1185.32
-1935.32
-770.664
1.32705
-2456.35
-128.952
-2001.23
1.33594
-2527.72
-293.417
-1871.6
-10371.6
-497.028
-2050.01
-604.831
-1392.92
-1.19035
-2574.17
-370.982
-2075.7
-920.39
-1.14459
-1810.2
-541.782
-2587.86
-125.679
-3383.7
-24.934
-10951.6
-72.1845
-22.615
-2071.69
-19.5122
-328.295
-1031.08
-1727.27
-15.543
-12.2775
-2560.69
-10.79
-2031.54
-5.63972
-324.761
-440.069
-12.1062
-2485.44
-1190.38
-1.00393
-609.115
-214.736
-304.16
-547.418
-1950.16
-11557.7
-2267.33
-1543.26
-36.6575
-2365.87
1.37659
-2357.46
-2453.11
-741.678
-136.269
-858.644
-1825.18
-35.8594
-2524.36
-1.35549
-400.096
-204.127
-410.355
-2176.13
-2573.24
-1559.43
-3181.6
-1327.59
-30.9317
-30.8831
-235.887
-28.4123
-28.4088
-25.1735
-2592.42
-25.2154
-971.157
-1658.04
-21.1094
-78.1222
-21.1803
-16.1825
-535.113
-16.2641
-13.1786
-1211.73
-10.5724
-2574.09
-10.6502
-1945.99
-4.85731
-4.9184
-2185.32
-2510.72
-75.0713
-311.812
-448.498
-678.212
-0.212546
-1454.59
-218.964
-16117.8
-0.243993
-561.138
-172.714
-1092.12
-2396.31
-38.3706
-2312.28
1.3947
-2938.34
-131.289
-1676.91
-19369.6
-2401.03
1.42228
-3037.12
-135.825
-2471.35
-748.442
-2227.95
-465.426
-3113.45
-2.84258
-1406.64
-1224.88
-285.589
-2523.91
-3163.79
-295.874
-2.62977
-2588.06
-32.4604
-2552.36
-29.9454
-26.5755
-3179.89
-22.227
-112.645
-2007.42
-79.1174
-126.76
-16.9098
-1383.4
-2549.76
-16.1506
-501.252
-851.287
-10.8871
-3152.91
-2508.87
-4.83751
-15.2952
-3074.04
-982.335
-0.0538437
-301.442
-1742.39
-2422.79
-391.6
-14794.4
-421.718
-199.292
-2935.58
-40.8089
1.40207
-65.0441
-536.441
-2286.16
-1083.2
-2709.39
-2732.86
-131.261
-1102.84
-2784.05
-38.0448
-864.383
-1446.64
-2096.89
-3.20263
-18294.3
-620.466
-2842.49
-177.814
-2100.33
-742.332
-36.8466
-2466.3
-36.8359
-34.3037
-34.332
-30.9584
-31.0322
-26.6939
-2880.87
-188.464
-26.8083
-339.613
-21.4608
-21.6067
-1857.89
-75.4977
-15.3898
-25.9762
-11.8633
-15.5555
-2892.84
-16.5649
-8.93301
-338.82
-9.10615
-2143.48
-2870.72
-1138.94
-3.00292
-795.259
-1355.22
-3.15799
-1578.48
-68.1066
-2806.27
0.927891
-21889.1
-245.678
-22151.1
0.852355
-349.301
-179.828
-2691.76
-39.585
-1780.11
0.883583
-520.399
-4.3164
-414.384
1.05284
-828.585
-2521.44
-1274.62
-111.961
-840.558
-2681.92
-5.18897
-3371.63
-262.637
-2729.65
-2293.34
-1494.42
-38.2475
-1399.3
-35.4923
-3415.46
-204.391
-4.35326
-537.501
-31.825
-27.1201
-2752.44
-21.3885
-3432.63
-68.491
-14.8691
-91.0937
-95.5523
-2757.08
-18.3707
-2011.35
3.82664
-967.455
-8.1421
-3423.18
-2736.96
-2.25205
-3378.1
-15.912
-330.143
-20858.6
-2684.31
-571.865
-1028.56
1.25998
-1686.72
-3287.87
-439.346
-199.256
-2591.61
-133.708
-245.431
-36.9837
-182.927
-3143.69
-8.63703
0.546604
-680.003
-554.887
-2452.38
-3.21802
-92.2317
-2938.78
-324.469
-1338.4
-31.0782
-2262.32
-5.90447
-694.919
-2670.09
-994.263
-39.2932
-39.464
-36.076
-36.2426
-31.772
-31.9388
-2782.3
-26.3114
-103.788
-26.4977
-19.7924
-2021.04
-20.0276
-12.644
-348.905
-12.9488
-54.669
-2785.9
-5.71628
-2340.59
-991.302
-181.386
-6.05324
-17.9698
-432.674
-0.371553
-28.6244
-2769.73
-1733.92
-23.7258
-0.631857
-35991.9
-607.858
1.17649
-103.663
1.55145
-2.78166
-2731.73
-31061.8
-19.1294
-1961.39
1.59682
-42.7151
-47.2465
-85.8207
-2669.29
-1.99311
-1413.56
-121.663
-419.58
-133.265
-1.2055
-94.0054
-32.0955
-672.345
-2578.83
-165.186
-187.673
-336.931
-1552.82
-28244.9
-2.72971
-12.5195
1.41728
-8.14037
-2456.15
-246.569
-22.7592
-58.6064
-60.4949
-10.1608
-66.1786
-1079.96
-88.2146
-239.202
-181.037
-172.465
-2296.99
-190.177
-306.802
-29.5673
-318.604
-1143.3
-320.111
-492.33
-2098.1
-24.142
-78.4737
-56.5593
-364.617
-466.814
-404.998
-40.304
-40.6796
-128.573
-758.476
-678.691
-214.203
-2621.66
-48.7376
-1858.63
-617.448
-152.198
-3241.4
-860.812
-110.479
-2577.19
-416.027
-4.51667
-765.26
-29562
-757.674
-3161.2
-37.9796
-1581.88
2.99181
-20.1647
-2493.15
-1020.4
-3044.94
-62.0583
-104.686
-475.347
-44.6482
-872.502
-131.031
-2390.3
-60.555
-457.686
-2907.74
-1277.16
-70.1231
-204.151
-1139.04
-315.642
-2272.48
-33.0559
-448.555
-2751.78
-947.535
-42.2308
-2139.42
-22.9027
-553.794
-156.392
-79.9458
-960.848
-2575.6
-140.946
-1200.3
-1989.15
-251.796
-19.965
-36.479
-488.321
-820.679
-2376.23
-971.14
-53.289
0.331541
-1818.94
-36713.7
-3.68224
-1087.71
-2150.24
-655.86
-1193.23
-213.367
-25.9995
-51.2344
-1626.17
-73.5524
-28.1521
-1895.06
-103.627
-43093.6
-1324.21
-937.899
-223.084
-1409.51
-236.695
-510.538
-9.34852
-2071.31
-98.8292
-11.2635
-1610.67
-388.339
-292.532
-1117.36
-1956.47
-1170.53
-1499.82
-9.90292
-23.4908
-512.118
0.782694
-1301.79
-337.037
-1851.56
-65.7351
-540.056
-852.878
-915.533
-839.722
-1751.18
-493.517
-1588.44
-6.9595
-980.108
-181.758
-1.03864
-814.097
-299.299
5.11217
-1651.4
-532.521
-15.3954
-657.172
-987.371
-1177.65
-193.517
-1548.58
-665.53
-1573.68
-1079.29
-1439.01
-414.614
-734.481
2.07655
6.9229
-35.3658
7.8182
-1481.04
-50.1899
-1318.77
-384.793
-40270.7
-1298.82
7.60113
-1184
-399.281
-1455.16
9.21217
-211.03
-834.097
4.62672
-40226.4
-1706.17
-569.013
-1676.06
2.83347
-1031.45
-166.301
-1439.46
-1274.04
-1469.13
5.97477
6.11892
-612.905
-859.729
-1751.37
-40.2136
-67.8979
-1328.38
-1817.4
-1335.16
-1253.03
-1596.67
-921.486
-671.105
-31.742
-1219.46
-10.502
-1477.67
-55131.4
-19.4113
-1463.17
-941.488
-137.995
-698.526
-1119.83
-473.814
2.29952
-0.833024
-1795.14
-635.589
-1346.36
-37.6731
-1031.15
-592.631
-631.891
-1240.29
12.0763
-283.746
-641.773
-1406.15
-260.411
-1007.18
-948.94
-57234.7
-522.763
-414.721
-1139.69
-87.5349
1.31368
-869.184
-1643.25
-123.956
-51.2324
-1039.65
-399.019
-787.991
-23.4922
-383.293
-935.236
-252.695
-1238.72
-20.1657
-701.389
-622.499
-55.1217
-821.486
-231.969
-605.53
-768.254
-179.22
-1392.28
-694.024
-112.861
-487.247
8.10412
-139.224
-497.514
-550.612
-142.703
-1010.12
-118.005
-497.061
-780.825
-377.088
-393.841
-41.9166
-225.674
-249.223
-64.1053
-558.541
-1094.82
-234.579
-348.19
-126.852
-45.9905
-52422.3
-149.468
-94.6092
-582.578
-644.657
-31.9547
-768.361
-19.3903
-5.4936
-589.995
-272.561
7.82814
-0.355772
-7.7102
-30.8617
-811.59
-535.192
-874.47
-97.8328
-569.438
0.44
-151.91
-52504.6
-283.121
-581.489
-1013.35
-560.568
-325.918
2.45193
-480.808
-496.656
-487.429
-643.354
-0.90167
-592.635
-832.144
-808.244
-539.614
-11.4016
-72985.8
-53632
-418.685
-20.3676
-778.034
-45.054
-474.343
-476.204
-466.279
-54.081
-1391.04
-357.762
-92.3189
-1147.93
-405.888
-95.866
-432.323
-1176.4
-65733.8
-596.907
-143.692
-45.1802
-1156.35
-343.289
-369.391
-136.621
-35.1452
-75286
-186.892
-497.16
-28.5282
-165.951
-301.907
-22.0177
-872.295
-473.505
-210.116
-15.5743
-175.612
-90064.3
-294.644
-706.439
-209.948
-9.49355
-708.366
-169.09
-4.11593
-335.993
-201.239
-162.311
0.233351
-68136.1
-79991.3
-197.743
-486.673
3.26589
-68935.7
-168.944
4.74349
-229.256
-228.418
4.49677
-107311
2.45346
-1.3225
-6.58678
-93493.7
-281.125
-96112.8
-291.995
-280.446
-265.995
-12.8866
-254.652
-238.909
-227.314
-210.922
-83664.8
-199.585
-19.5973
-182.866
-171.779
-155.015
-26.1804
-144.347
-127.934
-117.886
-102.258
-30.5224
-93.0455
-86026.1
-78.6262
-70.4439
-35.6259
-57.6122
-50.6137
-40.611
-39.6708
-33.9527
-25.0928
-20.6788
-13.9614
-10.7906
-100174
-6.11926
-117824
-4.04713
-1.16961
0.0185203
1.47718
1.91673
2.3758
2.98465
2.87187
-103960
2.51207
2.35403
1.79361
-117568
-85.8644
-0.569073
-75.6256
-65.7803
-56.2628
-47.1133
-38.4252
-140679
-30.3189
-22.9277
-16.382
-10.7944
-6.2452
-2.7717
-122883
-0.362131
1.03724
1.48784
0.961227
-2.92504
-165839
2.3189
-12.8641
-40.7972
-144738
-109.997
-102.864
-97.4856
-92.535
-87.2949
-82.7316
-77.7953
-73.5329
-68.9279
-64.9405
-60.6622
-56.9362
-52.9847
-49.5017
-45.8754
-42.6166
-39.3105
-36.2586
-33.2635
-30.4053
-27.7069
-25.0347
-22.614
-20.127
-17.9597
-15.6644
-13.7201
-11.6286
-9.87048
-7.99737
-6.38254
-4.65162
-3.18425
-2.11753
5.34148
3.9914
-14.7564
-62.3558
-83.8209
-107.832
SCALARS cohesion float 1
LOOKUP_TABLE default
7.57261
9.16681
8.21173
10.2939
8.65286
10.7665
8.57326
11.1291
12.3515
12.2809
8.84755
13.4777
11.933
9.74308
14.3125
8.35095
10.8605
14.6519
10.8568
9.11072
13.888
9.87603
12.9569
9.00682
11.6729
9.42317
8.56816
9.27544
10.7482
9.41579
8.63744
12.2022
9.70973
13.12
10.6494
9.43925
15.9506
8.22269
9.22544
15.3667
10.8171
9.46864
9.86107
9.68273
11.8976
8.32163
11.638
10.4749
14.0526
9.98974
11.0412
10.36
12.3278
10.4075
10.5049
8.43646
9.96978
10.6929
12.3081
13.5481
13.9139
10.5014
12.2902
15.5909
9.19863
14.2027
12.9884
14.272
12.343
11.0081
14.2281
12.7174
11.5042
12.4761
11.1819
13.1496
11.5624
10.8378
11.1017
9.76925
10.8797
11.7189
11.0546
10.0709
10.5012
10.5293
10.4341
10.2407
10.2919
10.4078
10.3457
10.299
10.3583
10.2573
11.004
11.5681
10.373
10.2293
10.3167
10.2696
10.2241
10.3938
10.2678
10.3058
10.3051
10.2371
10.3189
10.1941
10.2225
10.1441
10.2816
8.08278
10.348
10.1518
11.4268
12.0354
12.1258
10.203
10.1356
10.23
13.5437
10.1628
10.9232
10.2577
10.1267
10.3215
10.0941
10.186
10.1139
10.2608
10.0794
10.2297
10.1263
10.1589
10.0962
11.3862
10.061
10.2862
10.1778
10.0497
10.0565
10.0778
10.0436
10.1324
10.5483
10.1927
10.0307
10.0519
10.2517
10.0185
10.0734
10.0295
10.0207
10.1807
10.809
11.3262
10.0944
10.0007
10.1548
10.0128
10.0254
10.1012
9.98287
9.98834
10.2019
10.0199
10.0564
9.96877
10.0126
9.98839
9.95719
10.004
11.9493
10.1012
9.99813
11.2593
9.9923
9.95315
9.93159
9.98039
9.95128
10.1449
10.0041
10.0722
9.96314
10.0668
13.3109
10.0487
9.89566
9.94591
10.6647
9.89578
10.0511
9.90298
9.99537
11.1924
9.90001
9.95136
9.92134
10.0279
9.85966
10.0748
9.89426
10.1333
9.89673
10.1253
9.97494
9.99429
10.1177
9.84858
10.1063
9.83249
9.80994
9.8622
10.095
9.87984
11.0938
9.79458
9.9976
11.5542
10.0785
9.94628
9.92605
12.2846
9.82753
10.0621
9.90198
10.2494
9.75987
9.77842
9.98888
9.85029
10.2343
10.0386
10.4766
9.80765
11.0096
9.77947
10.2122
10.0151
9.73449
9.75222
9.87852
9.90012
9.69187
12.9508
9.70813
10.1802
9.98202
10.3646
9.80436
8.60339
9.73127
10.3573
10.3499
9.65644
10.3391
9.94883
9.71183
10.3283
10.1345
10.8792
9.6239
11.2434
10.3127
9.78474
10.1627
9.8019
9.66612
9.61443
10.2971
9.72973
9.90317
9.70625
9.60116
10.275
9.65629
10.3764
10.0704
9.61552
10.3621
10.2529
9.85736
10.2337
9.5328
9.60037
9.56236
10.7624
10.3414
10.2219
9.52043
9.67243
10.3116
9.79487
9.47179
10.1908
9.65688
9.53658
9.57904
9.98149
12.5895
10.2684
11.0079
9.51317
9.44211
10.2614
9.49057
10.2692
10.2545
10.1477
10.2445
10.6192
9.73244
10.2345
9.42327
9.39878
10.2201
10.1045
10.2057
9.5439
10.2096
9.47394
9.42611
9.45328
10.1854
9.4055
9.32439
9.86065
9.6495
10.165
9.36693
10.0462
9.96993
10.478
9.31713
9.48715
9.95661
9.93513
10.1367
10.8235
9.27846
11.7089
10.1275
9.9376
10.1083
9.98777
9.23414
9.31373
9.56712
9.9105
9.38468
9.20859
12.238
10.0692
9.29497
9.11181
9.87233
9.19521
9.21289
9.73283
10.318
9.91061
9.70103
10.0302
9.7264
9.72002
10.0165
9.71094
9.12901
9.20334
9.4608
9.70186
9.81916