# vtk DataFile Version 3.0
File generated from DClib
ASCII

DATASET UNSTRUCTURED_GRID
POINTS 1909 float
50 0 0 
48.75 0 0 
50 1.66667 0 
47.5 0 0 
50 3.33333 0 
46.25 0 0 
50 5 0 
45 0 0 
43.75 0 0 
50 6.66667 0 
43 2 0 
42.5 0 0 
50 8.33333 0 
43 4.66667 0 
41.25 0 0 
41.075 2 0 
50 10 0 
40 0 0 
43 7.33333 0 
39.15 2 0 
38.75 0 0 
43 10 0 
37.5 0 0 
37.225 2 0 
36.25 0 0 
36 4 0 
35.3 2 0 
36 5 0 
35 0 0 
35.325 4 0 
36 6 0 
36 7 0 
34.65 4 0 
36 8 0 
33.75 0 0 
33.975 4 0 
36 9 0 
33.375 2 0 
33.3 4 0 
36 10 0 
32.5 0 0 
32.625 4 0 
33 6 0 
31.95 4 0 
33 7.45455 0 
31.45 2 0 
31.25 0 0 
31.95 6 0 
33 8.79545 0 
31.275 4 0 
33 10 0 
30.6 4 0 
30 0 0 
30.9 6 0 
29.925 4 0 
29.525 2 0 
29.85 6 0 
29.25 4 0 
28.75 0 0 
30 8 0 
30 8.45455 0 
28.575 4 0 
29.625 8 0 
30 8.90909 0 
28.8 6 0 
30 9.25 0 
29.782 8.90909 0 
30 9.59091 0 
29.9487 9.59091 0 
29.25 8 0 
29.7462 9.25 0 
30 9.79545 0 
29.897 9.59091 0 
29.564 8.90909 0 
29.9547 9.79545 0 
29.3462 8.45455 0 
29.84 9.59091 0 
30 10 0 
29.8975 9.79545 0 
29.9882 10 0 
29.9902 10.0098 0 
29.7827 9.59091 0 
29.9765 10 0 
29.9804 10.0196 0 
29.9667 10.0098 0 
29.9591 10 0 
29.9686 10.0196 0 
29.9659 10.0341 0 
29.9569 10.0196 0 
29.9418 10 0 
29.9395 10.0196 0 
29.9515 10.0485 0 
29.932 10.0098 0 
29.9424 10.0341 0 
29.8241 9.79545 0 
29.7181 9.59091 0 
29.9166 10 0 
29.9397 10.0485 0 
29.9222 10.0196 0 
29.9279 10.0485 0 
29.9305 10.0695 0 
29.8914 10 0 
29.9077 10.0341 0 
27.9 4 0 
29.897 10.0196 0 
29.9106 10.0485 0 
29.8817 10.0098 0 
29.907 10.0695 0 
29.8933 10.0485 0 
29.9095 10.0905 0 
29.8719 10.0196 0 
27.6 2 0 
29.8556 10 0 
29.8978 10.0905 0 
29.6531 9.59091 0 
29.3437 8.90909 0 
27.5 0 0 
29.8681 10.0485 0 
29.886 10.0905 0 
29.8574 10.0341 0 
29.4839 9.25 0 
29.8723 10.0695 0 
29.7289 9.79545 0 
29.836 10.0196 0 
29.8687 10.0905 0 
29.8197 10 0 
29.8797 10.1203 0 
29.843 10.0485 0 
29.8513 10.0905 0 
29.81 10.0098 0 
29.8561 10.1203 0 
29.8002 10.0196 0 
29.8221 10.0695 0 
29.8072 10.0485 0 
29.8262 10.0905 0 
29.5782 9.59091 0 
29.8498 10.1502 0 
29.7695 10 0 
29.7858 10.0341 0 
29.838 10.1502 0 
29.8215 10.1203 0 
29.8011 10.0905 0 
29.8262 10.1502 0 
29.7714 10.0485 0 
28.875 8 0 
29.75 10.0196 0 
29.8089 10.1502 0 
29.7654 10.0905 0 
29.7193 10 0 
29.7916 10.1502 0 
29.7505 10.0695 0 
29.8079 10.1921 0 
29.7713 10.1203 0 
29.7096 10.0098 0 
29.6047 9.79545 0 
29.503 9.59091 0 
29.7213 10.0485 0 
29.7665 10.1502 0 
29.6999 10.0196 0 
29.7844 10.1921 0 
29.7296 10.0905 0 
29.6856 10.0341 0 
29.7414 10.1502 0 
29.7497 10.1921 0 
29.6503 10 0 
29.7661 10.2339 0 
29.6712 10.0485 0 
29.6999 10.1203 0 
29.7543 10.2339 0 
29.6796 10.0905 0 
29.7057 10.1502 0 
29.7425 10.2339 0 
29.1235 8.90909 0 
29.6309 10.0196 0 
29.6504 10.0695 0 
29.4146 9.59091 0 
29.7252 10.2339 0 
29.6996 10.1921 0 
29.6701 10.1502 0 
29.7079 10.2339 0 
29.6296 10.0905 0 
29.5813 10 0 
29.6023 10.0485 0 
29.5716 10.0098 0 
29.6828 10.2339 0 
29.7086 10.2914 0 
29.2101 9.25 0 
29.562 10.0196 0 
29.6201 10.1502 0 
29.6578 10.2339 0 
29.4428 9.79545 0 
29.5999 10.1203 0 
29.6849 10.2914 0 
29.6283 10.1921 0 
29.5477 10.0341 0 
29.3259 9.59091 0 
29.5608 10.0905 0 
29.5335 10.0485 0 
29.6221 10.2339 0 
29.6503 10.2914 0 
29.5702 10.1502 0 
29.4881 10 0 
29.5128 10.0695 0 
29.6511 10.3489 0 
29.5866 10.2339 0 
29.6392 10.3489 0 
29.4689 10.0196 0 
29.6002 10.2914 0 
29.6273 10.3489 0 
29.4921 10.0905 0 
29.61 10.3489 0 
29.5286 10.1921 0 
29.5016 10.1502 0 
29.5368 10.2339 0 
29.5926 10.3489 0 
29.4405 10.0485 0 
29.2199 9.59091 0 
29.4626 10.1203 0 
29.3949 10 0 
28.9 8.90909 0 
29.5676 10.3489 0 
29.5291 10.2914 0 
29.3853 10.0098 0 
28.6923 8.45455 0 
29.487 10.2339 0 
29.5426 10.3489 0 
29.3758 10.0196 0 
29.5734 10.4266 0 
29.4331 10.1502 0 
29.3993 10.0905 0 
28.5 8 0 
29.3617 10.0341 0 
29.5496 10.4266 0 
29.5071 10.3489 0 
29.2327 9.79545 0 
29.3475 10.0485 0 
29.1136 9.59091 0 
29.4187 10.2339 0 
29.5148 10.4266 0 
29.4716 10.3489 0 
29.3918 10.1921 0 
29.3271 10.0695 0 
29.4298 10.2914 0 
29.2714 10 0 
29.3406 10.1502 0 
28.9208 9.25 0 
29.3066 10.0905 0 
29.4648 10.4266 0 
29.422 10.3489 0 
29.4958 10.5042 0 
29.2524 10.0196 0 
27.75 6 0 
29.3504 10.2339 0 
29.4837 10.5042 0 
29.4718 10.5042 0 
29.2774 10.1203 0 
29.4543 10.5042 0 
29.3724 10.3489 0 
29.2244 10.0485 0 
29.4369 10.5042 0 
29.3938 10.4266 0 
28.9853 9.59091 0 
29.2481 10.1502 0 
28.6766 8.90909 0 
29.4119 10.5042 0 
29.2934 10.2914 0 
27.225 4 0 
29.148 10 0 
29.2582 10.2339 0 
29.1837 10.0905 0 
29.3869 10.5042 0 
29.1385 10.0098 0 
29.3044 10.3489 0 
29.1291 10.0196 0 
29.2072 10.1921 0 
29.3514 10.5042 0 
29.1152 10.0341 0 
29.3929 10.6071 0 
29.2949 10.4266 0 
29.1013 10.0485 0 
29.3686 10.6071 0 
29.316 10.5042 0 
29.2364 10.3489 0 
28.9623 9.79545 0 
29.1257 10.1502 0 
29.1662 10.2339 0 
29.0811 10.0695 0 
28.8566 9.59091 0 
29.3336 10.6071 0 
29.2666 10.5042 0 
29.0609 10.0905 0 
28.9875 10 0 
29.2835 10.6071 0 
29.1448 10.3489 0 
29.0321 10.1203 0 
29.2173 10.5042 0 
29.1098 10.2914 0 
28.125 8 0 
28.9688 10.0196 0 
29.1594 10.4266 0 
28.611 9.25 0 
29.29 10.71 0 
28.4486 8.90909 0 
29.0443 10.2339 0 
29.0033 10.1502 0 
29.2777 10.71 0 
28.9413 10.0485 0 
29.2128 10.6071 0 
29.2655 10.71 0 
29.1497 10.5042 0 
29.2478 10.71 0 
28.7003 9.59091 0 
29.0533 10.3489 0 
29.2303 10.71 0 
28.9629 10.1921 0 
28.9013 10.0905 0 
29.2051 10.71 0 
29.0822 10.5042 0 
29.1801 10.71 0 
28.827 10 0 
29.1144 10.6071 0 
28.8177 10.0098 0 
28.9225 10.2339 0 
28.8085 10.0196 0 
29.1447 10.71 0 
28.7949 10.0341 0 
28.8443 10.1502 0 
28.977 10.4266 0 
28.9322 10.3489 0 
29.1094 10.71 0 
28.7813 10.0485 0 
28.9912 10.5042 0 
29.1562 10.8438 0 
28.5436 9.59091 0 
28.7615 10.0695 0 
28.8669 10.2914 0 
29.1313 10.8438 0 
28.6184 9.79545 0 
29.0602 10.71 0 
28.2207 8.90909 0 
28.7418 10.0905 0 
28.0378 8.45455 0 
28.9798 10.6071 0 
29.0958 10.8438 0 
29.0112 10.71 0 
28.9005 10.5042 0 
28.7136 10.1203 0 
28.7644 10.2339 0 
28.8113 10.3489 0 
29.0454 10.8438 0 
28.6223 10 0 
28.6854 10.1502 0 
28.2746 9.25 0 
28.9441 10.71 0 
28.6042 10.0196 0 
27.75 8 0 
28.9747 10.8438 0 
28.6459 10.1921 0 
28.5773 10.0485 0 
29.0225 10.9775 0 
28.3532 9.59091 0 
28.7804 10.5042 0 
28.736 10.4266 0 
28.8772 10.71 0 
29.0097 10.9775 0 
28.9971 10.9775 0 
28.799 10.6071 0 
28.9791 10.9775 0 
28.5384 10.0905 0 
28.6064 10.2339 0 
28.6543 10.3489 0 
28.9611 10.9775 0 
28.8769 10.8438 0 
27.9867 8.90909 0 
26.25 0 0 
28.9358 10.9775 0 
28.7871 10.71 0 
28.9106 10.9775 0 
28.6607 10.5042 0 
28.4177 10 0 
26.55 4 0 
28.552 10.2914 0 
28.483 10.1502 0 
28.4087 10.0098 0 
28.8751 10.9775 0 
28.3998 10.0196 0 
28.3866 10.0341 0 
28.8399 10.9775 0 
28.6974 10.71 0 
28.3735 10.0485 0 
28.1625 9.59091 0 
28.7436 10.8438 0 
28.4976 10.3489 0 
28.3543 10.0695 0 
28.791 10.9775 0 
28.4052 10.2339 0 
28.3352 10.0905 0 
28.8519 11.1481 0 
28.1869 9.79545 0 
28.5607 10.6071 0 
28.5053 10.5042 0 
28.7423 10.9775 0 
28.8258 11.1481 0 
28.308 10.1203 0 
28.5787 10.71 0 
27.904 9.25 0 
28.7893 11.1481 0 
28.424 10.4266 0 
27.7528 8.90909 0 
28.2807 10.1502 0 
28.6758 10.9775 0 
27.375 8 0 
28.7383 11.1481 0 
28.1619 10 0 
28.5649 10.8438 0 
28.2425 10.1921 0 
28.6096 10.9775 0 
28.1444 10.0196 0 
28.298 10.3489 0 
28.4605 10.71 0 
26.7 6 0 
27.9315 9.59091 0 
28.3503 10.5042 0 
28.6676 11.1481 0 
28.1187 10.0485 0 
28.2042 10.2339 0 
28.5207 10.9775 0 
28.0813 10.0905 0 
28.6814 11.3186 0 
27.3818 8.45455 0 
28.6679 11.3186 0 
28.1516 10.2914 0 
28.5703 11.1481 0 
28.6544 11.3186 0 
28.6358 11.3186 0 
27.5109 8.90909 0 
28.3072 10.71 0 
28.6173 11.3186 0 
28.2524 10.6071 0 
28.4322 10.9775 0 
28.028 10.1502 0 
28.5915 11.3186 0 
28.0989 10.3489 0 
28.33 10.8438 0 
28.5658 11.3186 0 
28.153 10.5042 0 
27.9061 10 0 
27.8975 10.0098 0 
28.5303 11.3186 0 
28.4384 11.1481 0 
27.7002 9.59091 0 
27.889 10.0196 0 
27.8765 10.0341 0 
28.4949 11.3186 0 
28.3154 10.9775 0 
27.9532 10.2339 0 
27.8639 10.0485 0 
28.0276 10.4266 0 
28.1544 10.71 0 
27.8457 10.0695 0 
27.4909 9.25 0 
28.4463 11.3186 0 
27 8 0 
27.8275 10.0905 0 
28.3979 11.3186 0 
27.8015 10.1203 0 
27.6542 9.79545 0 
25.675 2 0 
28.1991 10.9775 0 
27.2691 8.90909 0 
27.9563 10.5042 0 
28.4682 11.5318 0 
28.2625 11.1481 0 
27.7755 10.1502 0 
28.3322 11.3186 0 
27.8502 10.3489 0 
28.4401 11.5318 0 
25.875 4 0 
27.7391 10.1921 0 
28.4019 11.5318 0 
28.0268 10.8438 0 
28.2668 11.3186 0 
27.9602 10.71 0 
28.3498 11.5318 0 
27.4223 9.59091 0 
27.7026 10.2339 0 
27.5927 10 0 
28.0486 10.9775 0 
27.8616 10.6071 0 
27.5762 10.0196 0 
28.1794 11.3186 0 
28.2786 11.5318 0 
27.5519 10.0485 0 
27.6524 10.2914 0 
28.0319 11.1481 0 
27.7108 10.5042 0 
27.5167 10.0905 0 
27.0169 8.90909 0 
28.0924 11.3186 0 
27.6021 10.3489 0 
27.8988 10.9775 0 
28.1818 11.5318 0 
27.7667 10.71 0 
26.625 8 0 
28.255 11.745 0 
27.4664 10.1502 0 
28.2402 11.745 0 
28.2256 11.745 0 
28.2059 11.745 0 
27.978 11.3186 0 
26.7234 8.45455 0 
27.0259 9.25 0 
27.5342 10.4266 0 
28.1863 11.745 0 
27.1442 9.59091 0 
28.0516 11.5318 0 
28.1598 11.745 0 
27.3959 10.2339 0 
28.1334 11.745 0 
27.2793 10 0 
27.2714 10.0098 0 
27.2635 10.0196 0 
27.7086 10.9775 0 
27.6431 10.8438 0 
28.0975 11.745 0 
27.8643 11.3186 0 
27.4661 10.5042 0 
27.2518 10.0341 0 
27.2401 10.0485 0 
28.0617 11.745 0 
26.7648 8.90909 0 
27.5255 10.71 0 
27.7353 11.1481 0 
27.2231 10.0695 0 
28.0133 11.745 0 
27.2061 10.0905 0 
27.8791 11.5318 0 
27.2986 10.3489 0 
27.1818 10.1203 0 
27.9651 11.745 0 
27.3758 10.6071 0 
27.0077 9.79545 0 
27.7174 11.3186 0 
27.1576 10.1502 0 
25 0 0 
27.5193 10.9775 0 
27.9003 11.745 0 
27.1236 10.1921 0 
26.25 8 0 
27.9939 12.0061 0 
25.65 6 0 
27.8359 11.745 0 
26.8136 9.59091 0 
27.0896 10.2339 0 
27.9626 12.0061 0 
27.2853 10.71 0 
25.2 4 0 
27.5713 11.3186 0 
27.9218 12.0061 0 
26.4998 8.90909 0 
27.167 10.5042 0 
27.6541 11.5318 0 
27.0427 10.2914 0 
27.7503 11.745 0 
26.9033 10 0 
27.8677 12.0061 0 
26.8882 10.0196 0 
26.8659 10.0485 0 
26.9958 10.3489 0 
27.2836 10.9775 0 
27.6652 11.745 0 
27.3609 11.1481 0 
27.7955 12.0061 0 
26.499 9.25 0 
[...]
POINT_DATA 1909
SCALARS phi float 1
LOOKUP_TABLE default
VECTORS Displacement float
0 0 0
0 0 0
0 -0.00213708 0
0 0 0
0 -0.00110637 0
0 0 0
0 0.00272723 0
0 0 0
0 0 0
0 0.00902856 0
0.0182532 -0.000746689 0
0 0 0
0 0.0175604 0
0.0345856 0.00651603 0
0 0 0
0.0247363 -0.00071176 0
0 0.0274112 0
0 0 0
0.0453676 0.0207075 0
0.0316405 -0.00082899 0
0 0 0
0.0510746 0.0397142 0
0 0 0
0.0387897 -0.00117321 0
0 0 0
0.0726065 0.00499515 0
0.0457888 -0.00170772 0
0.0857443 0.0107682 0
0 0 0
0.077862 0.00462625 0
0.0948082 0.0180208 0
0.100577 0.0261979 0
0.0828951 0.00422429 0
0.104299 0.0345468 0
0 0 0
0.0879112 0.00359821 0
0.107301 0.0434133 0
0.0522805 -0.00240725 0
0.0926802 0.00292794 0
0.11012 0.0538569 0
0 0 0
0.0972027 0.00213548 0
0.125075 0.0155898 0
0.101431 0.00129859 0
0.137481 0.0304059 0
0.0579457 -0.00324498 0
0 0 0
0.135548 0.0117139 0
0.143259 0.050226 0
0.105367 0.000335261 0
0.144927 0.0775443 0
0.108959 -0.000677174 0
0 0 0
0.143961 0.00811 0
0.112231 -0.00177984 0
0.062513 -0.00420163 0
0.151003 0.00432291 0
0.115132 -0.00294446 0
0 0 0
0.178521 0.0178742 0
0.184306 0.0223377 0
0.117693 -0.00416049 0
0.182025 0.0151289 0
0.190287 0.0280359 0
0.156774 0.000255615 0
0.194826 0.0360127 0
0.192959 0.0250886 0
0.199588 0.047362 0
0.200403 0.0447115 0
0.185101 0.0123703 0
0.198346 0.0305253 0
0.200661 0.0550735 0
0.201187 0.0425465 0
0.195331 0.0225131 0
0.20145 0.0523385 0
0.190858 0.0164347 0
0.201947 0.0404101 0
0.201088 0.0635851 0
0.202513 0.0492586 0
0.201456 0.063812 0
0.279622 0.0920312 0
0.202646 0.0385424 0
0.201884 0.0638031 0
0.338391 0.112341 0
0.278122 0.0911733 0
0.202554 0.0637074 0
0.336792 0.111438 0
0.341614 0.111946 0
0.33496 0.110284 0
0.203286 0.0634508 0
0.331809 0.10863 0
0.341611 0.11097 0
0.275397 0.089191 0
0.340163 0.11 0
0.203967 0.0459878 0
0.203345 0.0366656 0
0.20437 0.0626756 0
0.341478 0.110098 0
0.328566 0.106777 0
0.341368 0.109271 0
0.341793 0.109811 0
0.205491 0.0618379 0
0.336755 0.107187 0
0.11988 -0.005466 0
0.323973 0.103946 0
0.340988 0.108184 0
0.271705 0.0853804 0
0.341598 0.108237 0
0.340463 0.106976 0
0.341156 0.108508 0
0.319519 0.101082 0
0.0657308 -0.00524608 0
0.207018 0.0601452 0
0.341094 0.107722 0
0.203975 0.0349688 0
0.197594 0.0201752 0
0 0 0
0.33931 0.10508 0
0.341011 0.10691 0
0.330955 0.102545 0
0.201394 0.0264161 0
0.341169 0.105773 0
0.205864 0.0425606 0
0.31376 0.0967901 0
0.340865 0.105635 0
0.208508 0.0585246 0
0.340365 0.106669 0
0.337673 0.102987 0
0.340706 0.1043 0
0.26715 0.0793 0
0.340211 0.10492 0
0.308207 0.0926677 0
0.339835 0.101716 0
0.334943 0.0996955 0
0.34042 0.102288 0
0.20465 0.0332092 0
0.339412 0.104628 0
0.210402 0.0559897 0
0.322372 0.0951706 0
0.339317 0.103706 0
0.339944 0.102175 0
0.340092 0.100229 0
0.33922 0.102763 0
0.331712 0.0963406 0
0.188062 0.00965273 0
0.301124 0.0869463 0
0.339067 0.101352 0
0.339393 0.0973059 0
0.212133 0.0536317 0
0.338907 0.0999267 0
0.33639 0.0955462 0
0.33807 0.101604 0
0.339493 0.0980634 0
0.26142 0.0710242 0
0.208163 0.0389487 0
0.205266 0.0315673 0
0.326898 0.0915324 0
0.33867 0.0978517 0
0.294415 0.0816274 0
0.337884 0.0996596 0
0.338418 0.0943859 0
0.310422 0.0849967 0
0.33843 0.0957962 0
0.337594 0.0967885 0
0.214208 0.0505531 0
0.336756 0.0984841 0
0.32174 0.0868767 0
0.338578 0.0923055 0
0.336648 0.0974926 0
0.33655 0.0903864 0
0.338087 0.0929211 0
0.336539 0.0965086 0
0.199639 0.0179185 0
0.285965 0.0748237 0
0.329525 0.0869927 0
0.205978 0.029831 0
0.336379 0.0950724 0
0.337154 0.0927226 0
0.337757 0.0901525 0
0.336221 0.0936578 0
0.334122 0.0864762 0
0.215961 0.047695 0
0.314501 0.0807261 0
0.25417 0.0610983 0
0.335997 0.091649 0
0.335 0.0941798 0
0.204156 0.0227587 0
0.278215 0.0686523 0
0.337187 0.0864692 0
0.335778 0.0896964 0
0.210764 0.0351564 0
0.336209 0.0848061 0
0.334802 0.0922507 0
0.336544 0.0872812 0
0.294747 0.0725178 0
0.206672 0.0282009 0
0.330047 0.0813557 0
0.307162 0.0749306 0
0.335471 0.087015 0
0.334511 0.0895046 0
0.336501 0.0829916 0
0.21795 0.0444145 0
0.317945 0.0761067 0
0.333301 0.0899984 0
0.335174 0.0844529 0
0.333202 0.0890598 0
0.268781 0.0613562 0
0.334096 0.0857316 0
0.333104 0.0881379 0
0.325338 0.0764301 0
0.332962 0.0868103 0
0.335695 0.080415 0
0.33507 0.0785489 0
0.334779 0.0810467 0
0.332822 0.0855158 0
0.297274 0.0677778 0
0.207517 0.0264384 0
0.330503 0.0755697 0
0.219501 0.0413465 0
0.201586 0.015729 0
0.332624 0.0836951 0
0.33353 0.0807637 0
0.245475 0.0503642 0
0.196185 0.0109591 0
0.334415 0.0778617 0
0.33243 0.0819372 0
0.260642 0.0549441 0
0.331228 0.0846543 0
0.333106 0.0743325 0
0.31815 0.0702418 0
0.190717 0.00684871 0
0.275585 0.0586366 0
0.331049 0.0829125 0
0.332163 0.0795329 0
0.213518 0.0311171 0
0.287622 0.061152 0
0.2084 0.0247934 0
0.333891 0.0737703 0
0.330791 0.0804704 0
0.331907 0.0772405 0
0.333855 0.0721779 0
0.300478 0.0631849 0
0.332812 0.0745366 0
0.221172 0.0380357 0
0.329448 0.0690884 0
0.206728 0.0192093 0
0.310322 0.064316 0
0.33043 0.0771451 0
0.331559 0.0742025 0
0.329172 0.0796349 0
0.251492 0.0478721 0
0.161188 -0.00402859 0
0.333324 0.0699972 0
0.329093 0.0788137 0
0.329015 0.0780091 0
0.31913 0.064492 0
0.328903 0.0768574 0
0.331226 0.0713413 0
0.275474 0.0534422 0
0.328792 0.0757354 0
0.329939 0.072779 0
0.209444 0.0229264 0
0.324904 0.0640574 0
0.203386 0.0135429 0
0.328634 0.074163 0
0.331955 0.0670733 0
0.12171 -0.00677463 0
0.222403 0.0349069 0
0.332107 0.0653154 0
0.299193 0.057174 0
0.328479 0.0726433 0
0.236576 0.0397271 0
0.330796 0.0676514 0
0.244515 0.0419836 0
0.328744 0.0626136 0
0.328262 0.0705633 0
0.255128 0.0446276 0
0.326773 0.0735402 0
0.329299 0.0672624 0
0.26458 0.0466266 0
0.32663 0.0720426 0
0.328049 0.0685712 0
0.330398 0.0642235 0
0.21622 0.0265808 0
0.317431 0.0579411 0
0.330338 0.0609357 0
0.277048 0.0488894 0
0.210528 0.0211499 0
0.326425 0.0699575 0
0.327757 0.0659149 0
0.287732 0.0504383 0
0.223666 0.0314744 0
0.326139 0.0671191 0
0.32988 0.0599117 0
0.299569 0.0515587 0
0.327473 0.0633963 0
0.330342 0.0584299 0
0.193139 0.00403335 0
0.237706 0.0357819 0
0.328505 0.0605647 0
0.209145 0.0155723 0
0.324358 0.0678944 0
0.205055 0.0112986 0
0.326777 0.0556502 0
0.308707 0.0519941 0
0.324301 0.0671967 0
0.252737 0.0391502 0
0.325746 0.0633676 0
0.324244 0.0665123 0
0.327093 0.0601341 0
0.324162 0.065539 0
0.211796 0.0190734 0
0.329347 0.0559671 0
0.324082 0.0645883 0
0.316881 0.0515352 0
0.273401 0.0427198 0
0.323966 0.063259 0
0.326728 0.0570745 0
0.323851 0.0619683 0
0.224601 0.0282164 0
0.325222 0.0585785 0
0.229981 0.0299409 0
0.322069 0.0506186 0
0.233515 0.0308727 0
0.323688 0.0601999 0
0.238671 0.0320804 0
0.295957 0.0450576 0
0.32761 0.0527616 0
0.328195 0.05119 0
0.323527 0.058497 0
0.244049 0.0332031 0
0.326266 0.0532277 0
0.32155 0.0612287 0
0.213064 0.0170589 0
0.252513 0.0348132 0
0.325351 0.0487812 0
0.321446 0.0599506 0
0.218687 0.0212233 0
0.323302 0.05622 0
0.206602 0.00906844 0
0.260833 0.0361247 0
0.200448 0.00532729 0
0.324546 0.0526996 0
0.321298 0.0581864 0
0.32308 0.0540505 0
0.325846 0.0496757 0
0.272251 0.0375884 0
0.313858 0.0447526 0
0.326459 0.0468039 0
0.321091 0.0557902 0
0.225519 0.0244717 0
0.282532 0.0385212 0
0.211438 0.0117256 0
0.32278 0.0512287 0
0.230257 0.02572 0
0.195221 0.00116606 0
0.320807 0.052619 0
0.294364 0.0390278 0
0.236726 0.0269531 0
0.318795 0.0550772 0
0.214537 0.0146762 0
0.325333 0.0453386 0
0.326057 0.0440609 0
0.32249 0.0485751 0
0.318753 0.0544799 0
0.31871 0.0538938 0
0.323729 0.0458007 0
0.318651 0.0530715 0
0.248416 0.0288225 0
0.303721 0.0389847 0
0.322779 0.0417016 0
0.318593 0.0522678 0
0.320429 0.0485594 0
0.208035 0.00677509 0
0 0 0
0.318509 0.0511535 0
0.322112 0.0452348 0
0.318426 0.0500709 0
0.324811 0.0414257 0
0.226229 0.0208849 0
0.123167 -0.00821189 0
0.31226 0.0381006 0
0.266784 0.0310504 0
0.227621 0.0212211 0
0.31831 0.048595 0
0.228839 0.0214631 0
0.230595 0.0217677 0
0.318196 0.0471729 0
0.321758 0.0421395 0
0.23264 0.0221185 0
0.215939 0.0123297 0
0.319948 0.043565 0
0.317659 0.0368849 0
0.236189 0.022709 0
0.31804 0.0452765 0
0.289212 0.0324423 0
0.240281 0.0233415 0
0.31563 0.0479884 0
0.220868 0.0148213 0
0.322886 0.038097 0
0.323677 0.0368337 0
0.31789 0.0434691 0
0.315562 0.0468962 0
0.246949 0.0242658 0
0.321338 0.0383776 0
0.213626 0.00757591 0
0.315467 0.0454208 0
0.320975 0.03481 0
0.209338 0.00448562 0
0.254091 0.0250625 0
0.317692 0.0411225 0
0.197019 -0.00170016 0
0.315336 0.043445 0
0.226851 0.0166547 0
0.319372 0.0376898 0
0.264447 0.0259387 0
0.317507 0.0389158 0
0.228237 0.016821 0
0.308387 0.0314625 0
0.320993 0.0349381 0
0.16419 -0.00848143 0
0.217509 0.00953343 0
0.321974 0.0326612 0
0.315161 0.0408522 0
0.230379 0.0169865 0
0.274388 0.0263922 0
0.317275 0.0361296 0
0.234649 0.0173582 0
0.312441 0.04151 0
0.203755 -0.000350093 0
0.312417 0.0410068 0
0.286462 0.026402 0
0.314932 0.0375458 0
0.312393 0.0405137 0
0.312362 0.0398373 0
0.210516 0.00211229 0
0.320538 0.0307995 0
0.312332 0.039177 0
0.321389 0.0297733 0
0.317066 0.0335348 0
0.243282 0.0180789 0
0.31229 0.0382749 0
0.296464 0.0259113 0
0.318707 0.0310305 0
0.31225 0.037399 0
0.318098 0.0277798 0
0.227353 0.0125777 0
0.227759 0.0125691 0
0.312195 0.0362157 0
0.314646 0.033467 0
0.21892 0.00675511 0
0.228166 0.0125565 0
0.228775 0.0125338 0
0.312142 0.0350746 0
0.316809 0.0303199 0
0.258764 0.0190283 0
0.229422 0.0125144 0
0.305954 0.0245508 0
0.319996 0.0269488 0
0.230541 0.0125232 0
0.215682 0.00303914 0
0.312072 0.0335581 0
0.198489 -0.00459191 0
0.231833 0.012556 0
0.312005 0.0321052 0
0.234121 0.0126699 0
0.222896 0.00735264 0
0.0674426 -0.00638627 0
0.316541 0.0272695 0
0.211549 -0.000263422 0
0.312118 0.0229289 0
0.309037 0.0343779 0
0.314298 0.0285601 0
0.23693 0.0128444 0
0.311916 0.0302102 0
0.280486 0.0193467 0
0.309003 0.0334555 0
0.124251 -0.00958821 0
0.241748 0.0131406 0
0.308957 0.0322433 0
0.317892 0.0233577 0
0.31183 0.0283944 0
0.318798 0.022263 0
0.308893 0.0306467 0
0.220385 0.00344149 0
0.247402 0.0134165 0
0.227699 0.00780376 0
0.316191 0.0234834 0
0.315888 0.020396 0
0.22829 0.00770512 0
0.311717 0.0260583 0
0.308807 0.0285607 0
0.229171 0.00754607 0
0.256117 0.0136517 0
0.313846 0.022624 0
0.301266 0.0174426 0
0.23061 0.00731807 0
0.212446 -0.00274602 0
0.311594 0.023794 0
0.265204 0.0135576 0
0.315788 0.0198397 0
0.308694 0.0258692 0
0.316953 0.0178188 0
0.199706 -0.0075021 0
0.305461 0.0278384 0
0.233341 0.00704327 0
0.305456 0.0274073 0
0.305452 0.0269837 0
0.305446 0.0264204 0
0.311417 0.0208976 0
0.206106 -0.00608696 0
0.217477 -0.00200617 0
0.276943 0.0129234 0
0.305441 0.0258673 0
0.221601 0.000137558 0
0.308545 0.0224251 0
0.305434 0.0251264 0
0.239143 0.00676199 0
0.305426 0.0243995 0
0.228023 0.00322313 0
0.22824 0.00315122 0
0.228469 0.00308204 0
0.315167 0.0153516 0
0.316118 0.0144234 0
0.305416 0.0234256 0
0.311212 0.0180747 0
0.287326 0.0117843 0
0.228801 0.00297522 0
0.229138 0.00286744 0
0.305404 0.0224696 0
0.21318 -0.00523152 0
0.312373 0.012636 0
0.313139 0.015411 0
0.229639 0.00271163 0
0.305386 0.0211937 0
0.230139 0.00255072 0
0.308331 0.018033 0
0.250882 0.00634146 0
0.230913 0.002333 0
0.305364 0.0199388 0
0.29777 0.00968576 0
0.22499 -0.0010551 0
0.310913 0.0145067 0
0.231734 0.00211344 0
0 0 0
0.314441 0.0110565 0
0.305322 0.0182762 0
0.23315 0.00184852 0
0.200612 -0.0104283 0
0.301517 0.0206049 0
0.165759 -0.0130784 0
0.305272 0.0166381 0
0.222661 -0.00378207 0
0.234861 0.00160754 0
0.30151 0.0197585 0
0.30489 0.0073991 0
0.124923 -0.0111063 0
0.310568 0.0110434 0
0.301501 0.0186716 0
0.21378 -0.00784171 0
0.270141 0.0051673 0
0.307979 0.0124903 0
0.237915 0.0013219 0
0.30519 0.0144906 0
0.22859 -0.00192197 0
0.301485 0.0172516 0
0.228875 -0.00210487 0
0.229356 -0.00236067 0
0.241776 0.00104667 0
0.31292 0.00586729 0
0.305093 0.0123794 0
0.311981 0.0068148 0
0.301459 0.0153822 0
0.218818 -0.00768515 0
0.23011 -0.00272781 0
0.309396 0.00414495 0
0.310063 0.00677007 0
0.248147 0.000573108 0
0.301411 0.0129219 0
0.304947 0.00965344 0
0.231217 -0.00327512 0
0.291779 0.00191648 0
0.214203 -0.0104568 0
0.20749 -0.0119102 0
0.223383 -0.0076844 0
0.30738 0.00565906 0
0.255535 -0.000135926 0
0.201266 -0.0133741 0
0.297473 0.0136603 0
0.232982 -0.00407768 0
0.304777 0.00698664 0
0.297476 0.013227 0
0.301323 0.00970555 0
0.310685 0.000974934 0
0.297478 0.0127977 0
0.30948 0.00264901 0
0.297479 0.012248 0
0.29748 0.0117033 0
0.297479 0.0109924 0
0.228955 -0.00692837 0
0.265834 -0.00152458 0
0.229107 -0.00702068 0
0.229258 -0.0071139 0
0.297476 0.0102877 0
0.229467 -0.00725422 0
0.236435 -0.00522226 0
0.304521 0.00361762 0
0.229674 -0.00739591 0
0.297469 0.00935845 0
0.229968 -0.00760453 0
0.301163 0.00556205 0
0.29746 0.00843779 0
0.230262 -0.00781569 0
0.230676 -0.00812158 0
0.214473 -0.0132271 0
0.275862 -0.00345865 0
0.297444 0.00722072 0
0.309633 -0.0030594 0
0.308613 -0.00232464 0
0.231088 -0.00843226 0
0.304224 0.000337496 0
0.297423 0.00601684 0
0.304826 -0.00436159 0
0.226395 -0.0106176 0
0.231663 -0.00887444 0
0.306365 -0.00251819 0
0.243949 -0.00694223 0
0.297389 0.00443247 0
0.223846 -0.0122159 0
0.232232 -0.00932645 0
0.201613 -0.01633 0
0.300871 0.000333942 0
0.125187 -0.0126036 0
0.297348 0.00286968 0
0.286808 -0.00650979 0
0.219448 -0.0141168 0
0.233139 -0.00991981 0
0.303787 -0.00371163 0
0.292685 0.00557281 0
0.307608 -0.00708171 0
0.297282 0.000835121 0
0.292687 0.0046575 0
0.23411 -0.0105208 0
0.214555 -0.0160021 0
0.292686 0.00352326 0
0.229254 -0.0126115 0
0.229488 -0.0128056 0
0.297204 -0.00116563 0
0.294921 -0.00973458 0
0.258602 -0.0098091 0
0.29268 0.00208422 0
0.229841 -0.0130948 0
0.235812 -0.0112898 0
0.303285 -0.00763551 0
0.230352 -0.0135208 0
0.207911 -0.0178266 0
0.300358 -0.00610889 0
0.292664 0.00023331 0
0.29708 -0.00373046 0
0.237896 -0.0120756 0
0.231069 -0.014141 0
0.165888 -0.0178768 0
0.305572 -0.0126772 0
0.223877 -0.0167293 0
0.292627 -0.00215783 0
0.304726 -0.0120407 0
0.201687 -0.019319 0
0.296934 -0.00624423 0
0.300633 -0.0139654 0
0.232043 -0.015037 0
0.241676 -0.0131641 0
0.21445 -0.0189631 0
0.302569 -0.0123666 0
0.292552 -0.0052351 0
0 0 0
0.296712 -0.00940987 0
0.279122 -0.014768 0
0.287734 -0.002396 0
0.233395 -0.0163179 0
0.246478 -0.0144409 0
0.287736 -0.00288524 0
0.287737 -0.00337099 0
0.067435 -0.00763656 0
0.228971 -0.0182707 0
0.287738 -0.00396423 0
0.299484 -0.0138465 0
0.229093 -0.0183736 0
0.229216 -0.0184768 0
0.287738 -0.00455306 0
0.302571 -0.0178653 0
0.229385 -0.0186301 0
0.292408 -0.00915533 0
0.296453 -0.0124999 0
0.287736 -0.0052907 0
0.229553 -0.0187844 0
0.301749 -0.0169142 0
0.22979 -0.01901 0
0.287733 -0.00602237 0
0.230023 -0.0192377 0
0.25398 -0.0165128 0
0.287727 -0.00695553 0
0.235458 -0.0181658 0
0.230351 -0.0195663 0
0.219108 -0.0213777 0
0.124991 -0.0142939 0
0.287718 -0.00788022 0
0.214148 -0.0219268 0
0.230673 -0.0198991 0
0.201462 -0.0223243 0
0.287703 -0.00907061 0
0.231115 -0.0203732 0
0.296071 -0.0163141 0
0.223485 -0.0218888 0
0.226081 -0.0215409 0
0.287683 -0.0102487 0
0.231545 -0.0208553 0
0.292146 -0.0140745 0
0.262395 -0.0191996 0
0.287651 -0.0117674 0
0.301533 -0.0226402 0
0.232119 -0.0215295 0
0.300563 -0.0222762 0
0.207392 -0.0238441 0
0.239222 -0.0209872 0
0.294459 -0.0228359 0
0.287611 -0.0132679 0
0.232675 -0.0222176 0
0.29563 -0.0200212 0
0.298032 -0.0228729 0
0.287548 -0.0151928 0
0.233395 -0.0231599 0
0.272475 -0.0232941 0
0.213618 -0.0251022 0
0.281792 -0.0116425 0
0.291685 -0.0201282 0
0.228149 -0.0246398 0
0.287473 -0.0170904 0
0.281793 -0.0126982 0
0.228335 -0.0248475 0
0.234093 -0.024123 0
0.228615 -0.0251571 0
0.200975 -0.025356 0
0.28179 -0.0139459 0
0.294993 -0.0244918 0
0.299201 -0.0274015 0
0.229019 -0.0256124 0
0.287356 -0.0195004 0
0.28178 -0.0154614 0
0.235007 -0.0254262 0
0.247625 -0.0255139 0
0.229581 -0.0262733 0
0.222587 -0.027018 0
0.281063 -0.0277964 0
0.281758 -0.0173398 0
0.287219 -0.0218697 0
0.230343 -0.0272217 0
0.2359 -0.0267779 0
0.294263 -0.0288227 0
0.281713 -0.0196965 0
0.212885 -0.0282755 0
0.290897 -0.0274095 0
0.287012 -0.0248358 0
0.231345 -0.0285685 0
0.124333 -0.0158948 0
0.16458 -0.0229973 0
0.296183 -0.0331996 0
0.237452 -0.0285901 0
0.217496 -0.0295129 0
0.281631 -0.0226657 0
0.295747 -0.0331505 0
0.288171 -0.0334742 0
0.200205 -0.0284056 0
0.286771 -0.0277422 0
0.232621 -0.0304654 0
0.293247 -0.0339362 0
0.226716 -0.0309184 0
0.275529 -0.0208152 0
0.22681 -0.0310266 0
0.226903 -0.0311351 0
0.239527 -0.0304806 0
0.205964 -0.0299625 0
0.275531 -0.0213884 0
0.263354 -0.0325257 0
0.227035 -0.0312954 0
0.281481 -0.0263942 0
0.227167 -0.0314564 0
0.275532 -0.0219586 0
0.227352 -0.0316909 0
0.275532 -0.0226221 0
0.227537 -0.0319269 0
0.286418 -0.0313182 0
0.27553 -0.0232821 0
0.227795 -0.032266 0
0.275527 -0.0240712 0
0.228049 -0.0326082 0
0.211863 -0.0316818 0
0.275521 -0.0248556 0
0.221076 -0.0327589 0
0.291339 -0.0385154 0
0.228398 -0.033093 0
0.289606 -0.03596 0
0.275512 -0.0258153 0
0.234138 -0.0331404 0
0.228741 -0.0335843 0
0.243619 -0.0330651 0
0.281218 -0.031031 0
0.275499 -0.0267686 0
0.28601 -0.0348093 0
0.292085 -0.0388548 0
0.223366 -0.0337384 0
0 0 0
0.229198 -0.0342717 0
0.275479 -0.0279537 0
0.199187 -0.0314748 0
0.229642 -0.0349719 0
0.275454 -0.0291297 0
0.275416 -0.0306046 0
0.230219 -0.0359414 0
0.248863 -0.0361941 0
0.28543 -0.0390239 0
0.27537 -0.0320661 0
0.280769 -0.0367136 0
0.230764 -0.0369378 0
0.235958 -0.0369147 0
0.291064 -0.0443503 0
0.210636 -0.0350796 0
0.2753 -0.0339022 0
0.290509 -0.0445665 0
0.279962 -0.0425968 0
0.123148 -0.0177311 0
0.231437 -0.0383032 0
0.224505 -0.0378496 0
0.275218 -0.0357182 0
0.224662 -0.0380682 0
0.28477 -0.0431233 0
0.224893 -0.0383935 0
0.268045 -0.0313265 0
0.256269 -0.0408611 0
0.287569 -0.0457432 0
0.225222 -0.0388704 0
0.232026 -0.0397161 0
0.275096 -0.0379897 0
0.268045 -0.0325869 0
0.219026 -0.038438 0
0.19792 -0.0345501 0
0.225678 -0.0395604 0
0.268039 -0.0340118 0
0.203668 -0.0361664 0
0.280025 -0.0435497 0
0.214296 -0.0385075 0
0.274954 -0.040231 0
0.226288 -0.0405468 0
0.232705 -0.0415982 0
0.268023 -0.0356667 0
0.288713 -0.0499551 0
0.239325 -0.0425938 0
0.283858 -0.0479606 0
0.267992 -0.0376343 0
0.227069 -0.0419424 0
0.209052 -0.03872 0
0.263963 -0.0464191 0
0.274747 -0.043008 0
0.233268 -0.043532 0
0.161801 -0.0283905 0
0.267935 -0.0400159 0
0.274509 -0.0457404 0
0.22801 -0.043898 0
0.0654933 -0.00892085 0
0.282834 -0.0526513 0
0.267836 -0.0429304 0
0.196428 -0.0376329 0
0.233863 -0.0460435 0
0.278831 -0.0515922 0
0.274168 -0.0490799 0
0.283929 -0.0554727 0
0.22166 -0.044629 0
0.221732 -0.0447413 0
0.221804 -0.044854 0
0.22191 -0.0450203 0
0.271131 -0.0536606 0
0.222015 -0.0451872 0
0.229061 -0.0466086 0
0.284461 -0.0565778 0
0.222166 -0.0454302 0
0.267669 -0.0465103 0
0.222315 -0.0456745 0
0.222524 -0.0460247 0
0.216215 -0.0446391 0
0.20727 -0.0423356 0
0.260143 -0.0418769 0
0.234406 -0.0486085 0
0.222729 -0.0463777 0
0.121476 -0.0193564 0
0.273779 -0.0523545 0
0.260144 -0.0425707 0
0.247431 -0.0514097 0
0.22301 -0.0468762 0
0.260143 -0.0432624 0
0.281432 -0.05805 0
0.223282 -0.04738 0
0.26014 -0.0440318 0
0.260135 -0.0447986 0
0.223645 -0.0480809 0
0.267392 -0.0508941 0
0.260128 -0.0456736 0
0.217828 -0.0469431 0
0.223992 -0.0487912 0
0.260117 -0.0465451 0
0.230159 -0.050306 0
0.273236 -0.0562894 0
0.200538 -0.0424269 0
0.260101 -0.0475638 0
0.194729 -0.0407021 0
0.275444 -0.0604296 0
0.235491 -0.0520142 0
0.224436 -0.0497645 0
0.260081 -0.0485778 0
0.276975 -0.0608209 0
0.224854 -0.050753 0
0.260052 -0.0497871 0
0.279839 -0.0632711 0
0 0 0
0.260017 -0.0509899 0
0.266939 -0.0562137 0
0.272622 -0.0601324 0
0.225358 -0.0520881 0
0.259968 -0.0524455 0
0.205075 -0.046185 0
0.237187 -0.0556599 0
0.25991 -0.0538917 0
0.225824 -0.0534464 0
0.209264 -0.0482342 0
0.231179 -0.0552782 0
0.259828 -0.0556564 0
0.217886 -0.0519047 0
0.218022 -0.0521296 0
0.218218 -0.0524635 0
0.212874 -0.0507091 0
0.271785 -0.0646629 0
0.226359 -0.055255 0
0.276823 -0.0679693 0
0.218493 -0.0529517 0
0.259733 -0.0574072 0
0.26088 -0.0637282 0
0.192825 -0.0437552 0
0.266217 -0.0625768 0
0.218874 -0.0536553 0
0.277672 -0.069245 0
0.259599 -0.0595478 0
0.226818 -0.0571098 0
0.219382 -0.0546555 0
0.250807 -0.0538277 0