# vtk DataFile Version 3.0
File generated from DClib
ASCII

DATASET UNSTRUCTURED_GRID
POINTS 1909 float
50 0 0 
48.75 0 0 
50 1.66667 0 
47.5 0 0 
50 3.33333 0 
46.25 0 0 
50 5 0 
45 0 0 
43.75 0 0 
50 6.66667 0 
43 2 0 
42.5 0 0 
50 8.33333 0 
43 4.66667 0 
41.25 0 0 
41.075 2 0 
50 10 0 
40 0 0 
43 7.33333 0 
39.15 2 0 
38.75 0 0 
43 10 0 
37.5 0 0 
37.225 2 0 
36.25 0 0 
36 4 0 
35.3 2 0 
36 5 0 
35 0 0 
35.325 4 0 
36 6 0 
36 7 0 
34.65 4 0 
36 8 0 
33.75 0 0 
33.975 4 0 
36 9 0 
33.375 2 0 
33.3 4 0 
36 10 0 
32.5 0 0 
32.625 4 0 
33 6 0 
31.95 4 0 
33 7.45455 0 
31.45 2 0 
31.25 0 0 
31.95 6 0 
33 8.79545 0 
31.275 4 0 
33 10 0 
30.6 4 0 
30 0 0 
30.9 6 0 
29.925 4 0 
29.525 2 0 
29.85 6 0 
29.25 4 0 
28.75 0 0 
30 8 0 
30 8.45455 0 
28.575 4 0 
29.625 8 0 
30 8.90909 0 
28.8 6 0 
30 9.25 0 
29.782 8.90909 0 
30 9.59091 0 
29.9487 9.59091 0 
29.25 8 0 
29.7462 9.25 0 
30 9.79545 0 
29.897 9.59091 0 
29.564 8.90909 0 
29.9547 9.79545 0 
29.3462 8.45455 0 
29.84 9.59091 0 
30 10 0 
29.8975 9.79545 0 
29.9882 10 0 
29.9902 10.0098 0 
29.7827 9.59091 0 
29.9765 10 0 
29.9804 10.0196 0 
29.9667 10.0098 0 
29.9591 10 0 
29.9686 10.0196 0 
29.9659 10.0341 0 
29.9569 10.0196 0 
29.9418 10 0 
29.9395 10.0196 0 
29.9515 10.0485 0 
29.932 10.0098 0 
29.9424 10.0341 0 
29.8241 9.79545 0 
29.7181 9.59091 0 
29.9166 10 0 
29.9397 10.0485 0 
29.9222 10.0196 0 
29.9279 10.0485 0 
29.9305 10.0695 0 
29.8914 10 0 
29.9077 10.0341 0 
27.9 4 0 
29.897 10.0196 0 
29.9106 10.0485 0 
29.8817 10.0098 0 
29.907 10.0695 0 
29.8933 10.0485 0 
29.9095 10.0905 0 
29.8719 10.0196 0 
27.6 2 0 
29.8556 10 0 
29.8978 10.0905 0 
29.6531 9.59091 0 
29.3437 8.90909 0 
27.5 0 0 
29.8681 10.0485 0 
29.886 10.0905 0 
29.8574 10.0341 0 
29.4839 9.25 0 
29.8723 10.0695 0 
29.7289 9.79545 0 
29.836 10.0196 0 
29.8687 10.0905 0 
29.8197 10 0 
29.8797 10.1203 0 
29.843 10.0485 0 
29.8513 10.0905 0 
29.81 10.0098 0 
29.8561 10.1203 0 
29.8002 10.0196 0 
29.8221 10.0695 0 
29.8072 10.0485 0 
29.8262 10.0905 0 
29.5782 9.59091 0 
29.8498 10.1502 0 
29.7695 10 0 
29.7858 10.0341 0 
29.838 10.1502 0 
29.8215 10.1203 0 
29.8011 10.0905 0 
29.8262 10.1502 0 
29.7714 10.0485 0 
28.875 8 0 
29.75 10.0196 0 
29.8089 10.1502 0 
29.7654 10.0905 0 
29.7193 10 0 
29.7916 10.1502 0 
29.7505 10.0695 0 
29.8079 10.1921 0 
29.7713 10.1203 0 
29.7096 10.0098 0 
29.6047 9.79545 0 
29.503 9.59091 0 
29.7213 10.0485 0 
29.7665 10.1502 0 
29.6999 10.0196 0 
29.7844 10.1921 0 
29.7296 10.0905 0 
29.6856 10.0341 0 
29.7414 10.1502 0 
29.7497 10.1921 0 
29.6503 10 0 
29.7661 10.2339 0 
29.6712 10.0485 0 
29.6999 10.1203 0 
29.7543 10.2339 0 
29.6796 10.0905 0 
29.7057 10.1502 0 
29.7425 10.2339 0 
29.1235 8.90909 0 
29.6309 10.0196 0 
29.6504 10.0695 0 
29.4146 9.59091 0 
29.7252 10.2339 0 
29.6996 10.1921 0 
29.6701 10.1502 0 
29.7079 10.2339 0 
29.6296 10.0905 0 
29.5813 10 0 
29.6023 10.0485 0 
29.5716 10.0098 0 
29.6828 10.2339 0 
29.7086 10.2914 0 
29.2101 9.25 0 
29.562 10.0196 0 
29.6201 10.1502 0 
29.6578 10.2339 0 
29.4428 9.79545 0 
29.5999 10.1203 0 
29.6849 10.2914 0 
29.6283 10.1921 0 
29.5477 10.0341 0 
29.3259 9.59091 0 
29.5608 10.0905 0 
29.5335 10.0485 0 
29.6221 10.2339 0 
29.6503 10.2914 0 
29.5702 10.1502 0 
29.4881 10 0 
29.5128 10.0695 0 
29.6511 10.3489 0 
29.5866 10.2339 0 
29.6392 10.3489 0 
29.4689 10.0196 0 
29.6002 10.2914 0 
29.6273 10.3489 0 
29.4921 10.0905 0 
29.61 10.3489 0 
29.5286 10.1921 0 
29.5016 10.1502 0 
29.5368 10.2339 0 
29.5926 10.3489 0 
29.4405 10.0485 0 
29.2199 9.59091 0 
29.4626 10.1203 0 
29.3949 10 0 
28.9 8.90909 0 
29.5676 10.3489 0 
29.5291 10.2914 0 
29.3853 10.0098 0 
28.6923 8.45455 0 
29.487 10.2339 0 
29.5426 10.3489 0 
29.3758 10.0196 0 
29.5734 10.4266 0 
29.4331 10.1502 0 
29.3993 10.0905 0 
28.5 8 0 
29.3617 10.0341 0 
29.5496 10.4266 0 
29.5071 10.3489 0 
29.2327 9.79545 0 
29.3475 10.0485 0 
29.1136 9.59091 0 
29.4187 10.2339 0 
29.5148 10.4266 0 
29.4716 10.3489 0 
29.3918 10.1921 0 
29.3271 10.0695 0 
29.4298 10.2914 0 
29.2714 10 0 
29.3406 10.1502 0 
28.9208 9.25 0 
29.3066 10.0905 0 
29.4648 10.4266 0 
29.422 10.3489 0 
29.4958 10.5042 0 
29.2524 10.0196 0 
27.75 6 0 
29.3504 10.2339 0 
29.4837 10.5042 0 
29.4718 10.5042 0 
29.2774 10.1203 0 
29.4543 10.5042 0 
29.3724 10.3489 0 
29.2244 10.0485 0 
29.4369 10.5042 0 
29.3938 10.4266 0 
28.9853 9.59091 0 
29.2481 10.1502 0 
28.6766 8.90909 0 
29.4119 10.5042 0 
29.2934 10.2914 0 
27.225 4 0 
29.148 10 0 
29.2582 10.2339 0 
29.1837 10.0905 0 
29.3869 10.5042 0 
29.1385 10.0098 0 
29.3044 10.3489 0 
29.1291 10.0196 0 
29.2072 10.1921 0 
29.3514 10.5042 0 
29.1152 10.0341 0 
29.3929 10.6071 0 
29.2949 10.4266 0 
29.1013 10.0485 0 
29.3686 10.6071 0 
29.316 10.5042 0 
29.2364 10.3489 0 
28.9623 9.79545 0 
29.1257 10.1502 0 
29.1662 10.2339 0 
29.0811 10.0695 0 
28.8566 9.59091 0 
29.3336 10.6071 0 
29.2666 10.5042 0 
29.0609 10.0905 0 
28.9875 10 0 
29.2835 10.6071 0 
29.1448 10.3489 0 
29.0321 10.1203 0 
29.2173 10.5042 0 
29.1098 10.2914 0 
28.125 8 0 
28.9688 10.0196 0 
29.1594 10.4266 0 
28.611 9.25 0 
29.29 10.71 0 
28.4486 8.90909 0 
29.0443 10.2339 0 
29.0033 10.1502 0 
29.2777 10.71 0 
28.9413 10.0485 0 
29.2128 10.6071 0 
29.2655 10.71 0 
29.1497 10.5042 0 
29.2478 10.71 0 
28.7003 9.59091 0 
29.0533 10.3489 0 
29.2303 10.71 0 
28.9629 10.1921 0 
28.9013 10.0905 0 
29.2051 10.71 0 
29.0822 10.5042 0 
29.1801 10.71 0 
28.827 10 0 
29.1144 10.6071 0 
28.8177 10.0098 0 
28.9225 10.2339 0 
28.8085 10.0196 0 
29.1447 10.71 0 
28.7949 10.0341 0 
28.8443 10.1502 0 
28.977 10.4266 0 
28.9322 10.3489 0 
29.1094 10.71 0 
28.7813 10.0485 0 
28.9912 10.5042 0 
29.1562 10.8438 0 
28.5436 9.59091 0 
28.7615 10.0695 0 
28.8669 10.2914 0 
29.1313 10.8438 0 
28.6184 9.79545 0 
29.0602 10.71 0 
28.2207 8.90909 0 
28.7418 10.0905 0 
28.0378 8.45455 0 
28.9798 10.6071 0 
29.0958 10.8438 0 
29.0112 10.71 0 
28.9005 10.5042 0 
28.7136 10.1203 0 
28.7644 10.2339 0 
28.8113 10.3489 0 
29.0454 10.8438 0 
28.6223 10 0 
28.6854 10.1502 0 
28.2746 9.25 0 
28.9441 10.71 0 
28.6042 10.0196 0 
27.75 8 0 
28.9747 10.8438 0 
28.6459 10.1921 0 
28.5773 10.0485 0 
29.0225 10.9775 0 
28.3532 9.59091 0 
28.7804 10.5042 0 
28.736 10.4266 0 
28.8772 10.71 0 
29.0097 10.9775 0 
28.9971 10.9775 0 
28.799 10.6071 0 
28.9791 10.9775 0 
28.5384 10.0905 0 
28.6064 10.2339 0 
28.6543 10.3489 0 
28.9611 10.9775 0 
28.8769 10.8438 0 
27.9867 8.90909 0 
26.25 0 0 
28.9358 10.9775 0 
28.7871 10.71 0 
28.9106 10.9775 0 
28.6607 10.5042 0 
28.4177 10 0 
26.55 4 0 
28.552 10.2914 0 
28.483 10.1502 0 
28.4087 10.0098 0 
28.8751 10.9775 0 
28.3998 10.0196 0 
28.3866 10.0341 0 
28.8399 10.9775 0 
28.6974 10.71 0 
28.3735 10.0485 0 
28.1625 9.59091 0 
28.7436 10.8438 0 
28.4976 10.3489 0 
28.3543 10.0695 0 
28.791 10.9775 0 
28.4052 10.2339 0 
28.3352 10.0905 0 
28.8519 11.1481 0 
28.1869 9.79545 0 
28.5607 10.6071 0 
28.5053 10.5042 0 
28.7423 10.9775 0 
28.8258 11.1481 0 
28.308 10.1203 0 
28.5787 10.71 0 
27.904 9.25 0 
28.7893 11.1481 0 
28.424 10.4266 0 
27.7528 8.90909 0 
28.2807 10.1502 0 
28.6758 10.9775 0 
27.375 8 0 
28.7383 11.1481 0 
28.1619 10 0 
28.5649 10.8438 0 
28.2425 10.1921 0 
28.6096 10.9775 0 
28.1444 10.0196 0 
28.298 10.3489 0 
28.4605 10.71 0 
26.7 6 0 
27.9315 9.59091 0 
28.3503 10.5042 0 
28.6676 11.1481 0 
28.1187 10.0485 0 
28.2042 10.2339 0 
28.5207 10.9775 0 
28.0813 10.0905 0 
28.6814 11.3186 0 
27.3818 8.45455 0 
28.6679 11.3186 0 
28.1516 10.2914 0 
28.5703 11.1481 0 
28.6544 11.3186 0 
28.6358 11.3186 0 
27.5109 8.90909 0 
28.3072 10.71 0 
28.6173 11.3186 0 
28.2524 10.6071 0 
28.4322 10.9775 0 
28.028 10.1502 0 
28.5915 11.3186 0 
28.0989 10.3489 0 
28.33 10.8438 0 
28.5658 11.3186 0 
28.153 10.5042 0 
27.9061 10 0 
27.8975 10.0098 0 
28.5303 11.3186 0 
28.4384 11.1481 0 
27.7002 9.59091 0 
27.889 10.0196 0 
27.8765 10.0341 0 
28.4949 11.3186 0 
28.3154 10.9775 0 
27.9532 10.2339 0 
27.8639 10.0485 0 
28.0276 10.4266 0 
28.1544 10.71 0 
27.8457 10.0695 0 
27.4909 9.25 0 
28.4463 11.3186 0 
27 8 0 
27.8275 10.0905 0 
28.3979 11.3186 0 
27.8015 10.1203 0 
27.6542 9.79545 0 
25.675 2 0 
28.1991 10.9775 0 
27.2691 8.90909 0 
27.9563 10.5042 0 
28.4682 11.5318 0 
28.2625 11.1481 0 
27.7755 10.1502 0 
28.3322 11.3186 0 
27.8502 10.3489 0 
28.4401 11.5318 0 
25.875 4 0 
27.7391 10.1921 0 
28.4019 11.5318 0 
28.0268 10.8438 0 
28.2668 11.3186 0 
27.9602 10.71 0 
28.3498 11.5318 0 
27.4223 9.59091 0 
27.7026 10.2339 0 
27.5927 10 0 
28.0486 10.9775 0 
27.8616 10.6071 0 
27.5762 10.0196 0 
28.1794 11.3186 0 
28.2786 11.5318 0 
27.5519 10.0485 0 
27.6524 10.2914 0 
28.0319 11.1481 0 
27.7108 10.5042 0 
27.5167 10.0905 0 
27.0169 8.90909 0 
28.0924 11.3186 0 
27.6021 10.3489 0 
27.8988 10.9775 0 
28.1818 11.5318 0 
27.7667 10.71 0 
26.625 8 0 
28.255 11.745 0 
27.4664 10.1502 0 
28.2402 11.745 0 
28.2256 11.745 0 
28.2059 11.745 0 
27.978 11.3186 0 
26.7234 8.45455 0 
27.0259 9.25 0 
27.5342 10.4266 0 
28.1863 11.745 0 
27.1442 9.59091 0 
28.0516 11.5318 0 
28.1598 11.745 0 
27.3959 10.2339 0 
28.1334 11.745 0 
27.2793 10 0 
27.2714 10.0098 0 
27.2635 10.0196 0 
27.7086 10.9775 0 
27.6431 10.8438 0 
28.0975 11.745 0 
27.8643 11.3186 0 
27.4661 10.5042 0 
27.2518 10.0341 0 
27.2401 10.0485 0 
28.0617 11.745 0 
26.7648 8.90909 0 
27.5255 10.71 0 
27.7353 11.1481 0 
27.2231 10.0695 0 
28.0133 11.745 0 
27.2061 10.0905 0 
27.8791 11.5318 0 
27.2986 10.3489 0 
27.1818 10.1203 0 
27.9651 11.745 0 
27.3758 10.6071 0 
27.0077 9.79545 0 
27.7174 11.3186 0 
27.1576 10.1502 0 
25 0 0 
27.5193 10.9775 0 
27.9003 11.745 0 
27.1236 10.1921 0 
26.25 8 0 
27.9939 12.0061 0 
25.65 6 0 
27.8359 11.745 0 
26.8136 9.59091 0 
27.0896 10.2339 0 
27.9626 12.0061 0 
27.2853 10.71 0 
25.2 4 0 
27.5713 11.3186 0 
27.9218 12.0061 0 
26.4998 8.90909 0 
27.167 10.5042 0 
27.6541 11.5318 0 
27.0427 10.2914 0 
27.7503 11.745 0 
26.9033 10 0 
27.8677 12.0061 0 
26.8882 10.0196 0 
26.8659 10.0485 0 
26.9958 10.3489 0 
27.2836 10.9775 0 
27.6652 11.745 0 
27.3609 11.1481 0 
27.7955 12.0061 0 
26.499 9.25 0 
[...]
POINT_DATA 1909
SCALARS phi float 1
LOOKUP_TABLE default
VECTORS Displacement float
0 0 0
0 0 0
0 -0.00232708 0
0 0 0
0 -0.00321713 0
0 0 0
0 -0.00276997 0
0 0 0
0 0 0
0 -0.00110832 0
0.00677421 -0.00202946 0
0 0 0
0 0.0016631 0
0.0130468 -0.00113322 0
0 0 0
0.00915949 -0.00199371 0
0 0.0051409 0
0 0 0
0.0173198 0.00304312 0
0.0117762 -0.00202773 0
0 0 0
0.0195841 0.00989289 0
0 0 0
0.0145698 -0.00218218 0
0 0 0
0.0276079 -0.00136982 0
0.0173821 -0.00245868 0
0.0326494 0.000267389 0
0 0 0
0.0296109 -0.00151527 0
0.036315 0.00251877 0
0.0387135 0.00529786 0
0.0315736 -0.00169503 0
0.0400494 0.00822769 0
0 0 0
0.0335241 -0.00198169 0
0.0410693 0.0114453 0
0.0200313 -0.00283957 0
0.035417 -0.00230971 0
0.0419409 0.0157917 0
0 0 0
0.0372104 -0.00270403 0
0.0477388 0.00123096 0
0.038911 -0.0031383 0
0.0523957 0.00595752 0
0.0223495 -0.00330248 0
0 0 0
0.0516656 -0.000370783 0
0.0545605 0.0121094 0
0.0404787 -0.00361957 0
0.0544198 0.0245959 0
0.0419161 -0.00413586 0
0 0 0
0.0549578 -0.00203454 0
0.0432075 -0.00468654 0
0.0241987 -0.0038284 0
0.0577237 -0.00383718 0
0.0443414 -0.00526909 0
0 0 0
0.0676555 0.0002313 0
0.0695836 0.00164711 0
0.0453226 -0.00587406 0
0.0690225 -0.000976229 0
0.071444 0.00334045 0
0.0599507 -0.00577228 0
0.0727869 0.00604195 0
0.0725237 0.00236847 0
0.0741996 0.010106 0
0.0744173 0.00914882 0
0.0702358 -0.00222176 0
0.074118 0.00410698 0
0.0752949 0.0138207 0
0.0746474 0.00835213 0
0.073513 0.0014148 0
0.0756304 0.0130162 0
0.0721754 -0.000816006 0
0.0748742 0.00752676 0
0.0763119 0.0193419 0
0.0760514 0.0119938 0
0.076453 0.0193065 0
0.0992713 0.0320069 0
0.0750974 0.00678458 0
0.0765947 0.0191846 0
0.118501 0.0412133 0
0.097027 0.0303785 0
0.0768112 0.0190453 0
0.116006 0.0396471 0
0.12061 0.0403855 0
0.113552 0.0380496 0
0.0770318 0.0188507 0
0.11005 0.036091 0
0.120667 0.0395001 0
0.0941719 0.0282991 0
0.117974 0.0383134 0
0.0765893 0.0108065 0
0.0753529 0.00606806 0
0.0773505 0.018461 0
0.120417 0.0389416 0
0.107083 0.0343805 0
0.120155 0.0384603 0
0.121379 0.0391526 0
0.0776661 0.0180532 0
0.113491 0.035981 0
0.0461307 -0.00651252 0
0.103637 0.0321 0
0.119359 0.0378648 0
0.091435 0.0256772 0
0.120984 0.0382421 0
0.118086 0.0370605 0
0.121326 0.0385482 0
0.100824 0.0301553 0
0.0254711 -0.00440514 0
0.0780865 0.0172766 0
0.121184 0.0381069 0
0.0756047 0.00540917 0
0.0744347 0.000431839 0
0 0 0
0.115862 0.0355657 0
0.121014 0.0376543 0
0.107727 0.0324141 0
0.0753655 0.00257001 0
0.1199 0.0367333 0
0.0772518 0.00947288 0
0.0977799 0.02758 0
0.120756 0.0369287 0
0.0784795 0.016521 0
0.121354 0.0377953 0
0.113295 0.0339289 0
0.120483 0.0361943 0
0.089073 0.022397 0
0.121098 0.0368434 0
0.0953847 0.0254195 0
0.116869 0.0340833 0
0.109723 0.0314164 0
0.119875 0.0351404 0
0.0759182 0.00476217 0
0.121061 0.0368578 0
0.0789696 0.0153536 0
0.101331 0.0275988 0
0.120943 0.0363683 0
0.120664 0.0353898 0
0.11902 0.0339975 0
0.120822 0.0358724 0
0.106377 0.0291027 0
0.0714006 -0.00347529 0
0.0929572 0.0227137 0
0.120624 0.0351355 0
0.117302 0.0322991 0
0.0793962 0.0142495 0
0.120409 0.0343935 0
0.111275 0.0299884 0
0.12065 0.0355174 0
0.119771 0.0332 0
0.0872276 0.018596 0
0.0780083 0.00797957 0
0.0762328 0.00416264 0
0.102422 0.0259585 0
0.120086 0.0333021 0
0.0911941 0.0205042 0
0.120425 0.0345078 0
0.115031 0.0304485 0
0.0954038 0.0221366 0
0.11975 0.032236 0
0.120074 0.0330217 0
0.0799156 0.0128478 0
0.120097 0.0340908 0
0.0991271 0.023309 0
0.117329 0.0299673 0
0.119986 0.0335786 0
0.111555 0.0277935 0
0.119155 0.030767 0
0.119873 0.0330704 0
0.0752758 -0.000556265 0
0.0895238 0.0179159 0
0.103903 0.0245083 0
0.0766252 0.00353205 0
0.119707 0.0323309 0
0.119531 0.0309468 0
0.11842 0.029332 0
0.119541 0.0316063 0
0.107997 0.0252792 0
0.0803415 0.011535 0
0.0956718 0.0200578 0
0.0858506 0.0145778 0
0.119294 0.0305853 0
0.119306 0.0321244 0
0.076507 0.00104728 0
0.0883525 0.0157731 0
0.116876 0.0274178 0
0.119043 0.0296002 0
0.0788019 0.0062762 0
0.111918 0.025507 0
0.119108 0.031132 0
0.11863 0.0281993 0
0.0908548 0.0167407 0
0.0770168 0.00292931 0
0.103616 0.0219856 0
0.0931535 0.0174891 0
0.118679 0.0282476 0
0.118813 0.0297332 0
0.114744 0.0254291 0
0.0808546 0.0100583 0
0.0966123 0.0184864 0
0.118448 0.0301846 0
0.118307 0.026974 0
0.118355 0.0297035 0
0.0871918 0.0133635 0
0.118389 0.0278355 0
0.118263 0.0292333 0
0.0998567 0.0192213 0
0.118129 0.0285598 0
0.11641 0.0246282 0
0.111279 0.0227744 0
0.117711 0.0252919 0
0.117996 0.0279071 0
0.0907888 0.0145902 0
0.0774905 0.00225062 0
0.103995 0.0198992 0
0.081268 0.00867474 0
0.0760663 -0.00155965 0
0.117808 0.0269963 0
0.117791 0.0253887 0
0.0846784 0.0105232 0
0.0742855 -0.00332501 0
0.117009 0.023726 0
0.117625 0.0261253 0
0.0863206 0.0112807 0
0.117345 0.0277121 0
0.107539 0.0202411 0
0.095969 0.0158967 0
0.072415 -0.00476294 0
0.0878146 0.0118262 0
0.117181 0.0268298 0
0.117367 0.0249486 0
0.079596 0.00430832 0
0.0891723 0.0122603 0
0.0779584 0.00159073 0
0.115498 0.0217404 0
0.11695 0.025608 0
0.117114 0.0238406 0
0.110956 0.0201031 0
0.0911651 0.0128307 0
0.1169 0.0223969 0
0.0817344 0.00714616 0
0.102899 0.0170107 0
0.0775596 -0.000533232 0
0.0931539 0.0133122 0
0.116629 0.0239739 0
0.116756 0.0223837 0
0.11622 0.0253863 0
0.0853696 0.00896229 0
0.0616039 -0.00780247 0
0.113331 0.0197254 0
0.116149 0.0249744 0
0.116078 0.0245732 0
0.0960824 0.0139101 0
0.115978 0.0240024 0
0.116392 0.0210332 0
0.087687 0.00973113 0
0.11588 0.0234509 0
0.116198 0.021875 0
0.0785056 0.000818109 0
0.098917 0.0143272 0
0.0767809 -0.00257616 0
0.115742 0.0226845 0
0.114722 0.0187451 0
0.0467813 -0.00716056 0
0.082116 0.00570215 0
0.109722 0.0171476 0
0.0906261 0.0104239 0
0.115607 0.0219512 0
0.0836656 0.00648811 0
0.115814 0.0192934 0
0.0846765 0.00692208 0
0.102565 0.0146416 0
0.115422 0.0209582 0
0.0857088 0.00727907 0
0.114902 0.022605 0
0.115629 0.0192892 0
0.0866008 0.00754199 0
0.114776 0.0218668 0
0.115244 0.0200183 0
0.115105 0.0176958 0
0.0804078 0.00203804 0
0.0949774 0.0111199 0
0.105739 0.0146808 0
0.0877891 0.00784238 0
0.0790351 5.95039e-05 0
0.114599 0.020853 0
0.115004 0.0187828 0
0.0889207 0.00808457 0
0.0824622 0.00401641 0
0.114359 0.0194966 0
0.113496 0.0157129 0
0.0905461 0.00837838 0
0.114775 0.0176267 0
0.108901 0.0142918 0
0.0733285 -0.00606152 0
0.0839977 0.00468398 0
0.114794 0.016234 0
0.0785544 -0.00217342 0
0.113613 0.0200519 0
0.0774191 -0.00362428 0
0.100958 0.0115714 0
0.0922034 0.00861978 0
0.11356 0.0197133 0
0.0855791 0.00517704 0
0.114044 0.0177418 0
0.113508 0.019383 0
0.114458 0.0161436 0
0.113433 0.018916 0
0.0796349 -0.000846442 0
0.111101 0.0136995 0
0.113361 0.018463 0
0.0946031 0.00888154 0
0.0874299 0.00556536 0
0.113259 0.0178344 0
0.11413 0.0147645 0
0.113159 0.0172293 0
0.0827582 0.00243016 0
0.113644 0.0155509 0
0.0832254 0.00260758 0
0.0970008 0.00902149 0
0.0836841 0.00276562 0
0.113021 0.0164069 0
0.0842816 0.00293717 0
0.0898519 0.00585465 0
0.112447 0.0125682 0
0.107185 0.0111825 0
0.112889 0.0156221 0
0.0848638 0.00308451 0
0.113565 0.0130094 0
0.112162 0.0171029 0
0.0801985 -0.00174012 0
0.0856522 0.00324901 0
0.100142 0.00902218 0
0.112066 0.0164926 0
0.0813279 -0.000515149 0
0.112709 0.0145804 0
0.0779919 -0.00466561 0
0.0863808 0.00336616 0
0.0758923 -0.00592465 0
0.113142 0.0128971 0
0.111932 0.0156591 0
0.112539 0.0135937 0
0.112778 0.0113882 0
0.0873584 0.0034807 0
0.0933562 0.00601191 0
0.102975 0.00880181 0
0.11175 0.0145407 0
0.0830288 0.000595717 0
0.0882897 0.00354966 0
0.0794995 -0.0038904 0
0.112318 0.0123185 0
0.0835195 0.000701319 0
0.0740827 -0.00737237 0
0.111508 0.0130778 0
0.0895896 0.00360288 0
0.0843177 0.000854107 0
0.11077 0.0144041 0
0.0808064 -0.00281641 0
0.1109 0.00941059 0
0.105945 0.00818901 0
0.112114 0.0111217 0
0.11073 0.014122 0
0.11069 0.0138461 0
0.11236 0.00979012 0
0.110634 0.0134604 0
0.085478 0.00101927 0
0.0909052 0.00361523 0
0.0982763 0.00584353 0
0.11058 0.0130845 0
0.111199 0.0112203 0
0.0785044 -0.00572566 0
0 0 0
0.110502 0.012565 0
0.111842 0.00961157 0
0.110427 0.0120615 0
0.108097 0.00739626 0
0.0832929 -0.00112186 0
0.0472511 -0.00784924 0
0.0927666 0.0035705 0
0.0869888 0.00110672 0
0.0834409 -0.00112059 0
0.110321 0.0113768 0
0.0836038 -0.00111333 0
0.0838542 -0.00110173 0
0.110219 0.0107176 0
0.111558 0.00819851 0
0.0841304 -0.00108207 0
0.0813578 -0.00387803 0
0.110818 0.00893532 0
0.0946688 0.00344729 0
0.0845433 -0.00105803 0
0.11008 0.00983832 0
0.0889426 0.00103358 0
0.0849767 -0.00103462 0
0.109201 0.0113171 0
0.0824195 -0.00333432 0
0.109548 0.00610117 0
0.103828 0.00493523 0
0.109945 0.00899802 0
0.109127 0.0107968 0
0.085575 -0.00102691 0
0.110954 0.00642563 0
0.0803705 -0.00573224 0
0.109025 0.010095 0
0.0971995 0.00315072 0
0.0789553 -0.00677395 0
0.0861601 -0.00104074 0
0.109766 0.00790147 0
0.0747135 -0.00867786 0
0.108885 0.00915632 0
0.0837399 -0.00298917 0
0.110371 0.00619762 0
0.0869442 -0.00109827 0
0.109595 0.0068599 0
0.0838905 -0.00306098 0
0.0916332 0.000711737 0
0.109961 0.00477796 0
0.0626691 -0.00990071 0
0.0819144 -0.00514917 0
0.0996005 0.00269019 0
0.108698 0.00792269 0
0.0841972 -0.00313247 0
0.0876925 -0.00119168 0
0.109383 0.00553634 0
0.0847383 -0.00320893 0
0.107707 0.00846981 0
0.07705 -0.00851824 0
0.107675 0.00822382 0
0.0887036 -0.00136032 0
0.108453 0.00633959 0
0.107644 0.00798267 0
0.107601 0.00765259 0
0.0793597 -0.00784545 0
0.107638 0.0028348 0
0.107558 0.00732985 0
0.102271 0.00186299 0
0.109194 0.00429278 0
0.0855866 -0.0033197 0
0.107499 0.00688906 0
0.0897025 -0.0015655 0
0.109562 0.00303634 0
0.10744 0.00645986 0
0.0953806 -3.15895e-05 0
0.0841666 -0.00472109 0
0.0842366 -0.00476179 0
0.107359 0.00587928 0
0.108145 0.00436596 0
0.08239 -0.00640011 0
0.0843063 -0.00480269 0
0.0844036 -0.00486504 0
0.107279 0.00531711 0
0.108951 0.00275517 0
0.0867589 -0.00353887 0
0.0845022 -0.00492747 0
0.0910721 -0.00188934 0
0.104366 0.000877581 0
0.0846707 -0.00500657 0
0.08113 -0.00774323 0
0.10717 0.0045688 0
0.0751962 -0.00998179 0
0.0848473 -0.00508399 0
0.107063 0.00384938 0
0.0851383 -0.0051788 0
0.0835163 -0.00647238 0
0.0260789 -0.00502351 0
0.108687 0.00132383 0
0.0796999 -0.00890768 0
0.092466 -0.00226191 0
0.105996 0.00521792 0
0.107777 0.00198925 0
0.0854406 -0.00527406 0
0.106923 0.00291096 0
0.0882787 -0.00396065 0
0.105937 0.00475162 0
0.0475585 -0.0085317 0
0.0858783 -0.00540988 0
0.105859 0.00413811 0
0.105974 -0.000575394 0
0.106788 0.00201703 0
0.0999643 -0.00145825 0
0.105753 0.00333002 0
0.0828568 -0.00786943 0
0.0863218 -0.00555315 0
0.0847156 -0.00662903 0
0.107935 -0.000416275 0
0.0943323 -0.00283001 0
0.0848349 -0.00671458 0
0.106616 0.00087799 0
0.105612 0.0022767 0
0.0850129 -0.00684187 0
0.0869159 -0.00577541 0
0.107374 -0.000780781 0
0.0902772 -0.00468896 0
0.0852803 -0.00702527 0
0.0799933 -0.0100042 0
0.106454 -0.000198331 0
0.0874953 -0.00601891 0
0.10659 -0.00203187 0
0.105427 0.000929948 0
0.0961862 -0.00349906 0
0.0755684 -0.0112812 0
0.10438 0.002198 0
0.0856853 -0.00728617 0
0.104354 0.00197254 0
0.104328 0.00175146 0
0.104294 0.00145851 0
0.106264 -0.00153225 0
0.0778037 -0.0110811 0
0.081735 -0.00995978 0
0.0882546 -0.00638448 0
0.10426 0.001172 0
0.0832195 -0.0093159 0
0.105193 -0.000748089 0
0.104214 0.000789876 0
0.0862867 -0.00765947 0
0.104169 0.000417616 0
0.0851097 -0.00847636 0
0.0851699 -0.00852006 0
0.08523 -0.00856393 0
0.103766 -0.00384904 0
0.0983765 -0.00449866 0
0.104107 -7.77079e-05 0
0.106096 -0.00278124 0
0.0890016 -0.00677803 0
0.0853159 -0.00862899 0
0.0854011 -0.00869445 0
0.104047 -0.000557707 0
0.0802208 -0.0110922 0
0.0929417 -0.00588991 0
0.106386 -0.00388435 0
0.0855237 -0.00878956 0
0.103967 -0.00118999 0
0.0856454 -0.00888551 0
0.104913 -0.00277633 0
0.0871162 -0.00820766 0
0.0858183 -0.00902293 0
0.10389 -0.00179874 0
0.0899713 -0.00734405 0
0.0843554 -0.0100115 0
0.105847 -0.00428975 0
0.0859906 -0.00916199 0
0 0 0
0.100277 -0.00563416 0
0.103789 -0.00258746 0
0.0862313 -0.00935946 0
0.0758115 -0.012576 0
0.102543 -0.00120381 0
0.0631472 -0.0120516 0
0.103692 -0.00334115 0
0.0835408 -0.010998 0
0.0864715 -0.00956047 0
0.102498 -0.00163674 0
0.0909347 -0.00794702 0
0.0476806 -0.00926702 0
0.10556 -0.00566988 0
0.10244 -0.00218414 0
0.0803987 -0.0122251 0
0.088198 -0.00901563 0
0.104601 -0.00514641 0
0.0868028 -0.00984451 0
0.103571 -0.00429758 0
0.0854441 -0.0105829 0
0.102363 -0.00288395 0
0.0855472 -0.0106698 0
0.0857004 -0.0107992 0
0.0871271 -0.0101374 0
0.0963218 -0.00778227 0
0.103459 -0.0052036 0
0.101917 -0.0072146 0
0.102264 -0.00377751 0
0.0821417 -0.0124117 0
0.0859221 -0.0109896 0
0.0921837 -0.00878297 0
0.104563 -0.00728191 0
0.08755 -0.0105484 0
0.102137 -0.00490524 0
0.103323 -0.00632774 0
0.0862346 -0.0112669 0
0.089594 -0.0101824 0
0.0805108 -0.0133489 0
0.0781797 -0.0136248 0
0.0837451 -0.0126526 0
0.10422 -0.00781981 0
0.087955 -0.0109738 0
0.0759543 -0.0138688 0
0.100769 -0.00436542 0
0.0866629 -0.0116672 0
0.103198 -0.00738497 0
0.10075 -0.00457566 0
0.101983 -0.00630134 0
0.0934337 -0.00967912 0
0.100731 -0.00478175 0
0.102761 -0.00881077 0
0.100708 -0.00504346 0
0.100685 -0.00529945 0
0.100656 -0.00562943 0
0.0856338 -0.0126285 0
0.0884677 -0.0115594 0
0.0856822 -0.0126725 0
0.0857305 -0.0127167 0
0.100626 -0.00595119 0
0.0858005 -0.0127821 0
0.0872268 -0.0122431 0
0.103042 -0.00867083 0
0.0858703 -0.012848 0
0.100588 -0.00636829 0
0.0859703 -0.012944 0
0.1018 -0.00798983 0
0.100551 -0.00677326 0
0.0860697 -0.013041 0
0.0862101 -0.0131806 0
0.0805672 -0.0145286 0
0.0889562 -0.0121663 0
0.100503 -0.00729707 0
0.0949747 -0.0108964 0
0.09966 -0.0105418 0
0.0863488 -0.013322 0
0.102883 -0.00989182 0
0.100457 -0.00780284 0
0.0913418 -0.0118519 0
0.0847643 -0.0140115 0
0.0865407 -0.0135231 0
0.102868 -0.0108052 0
0.0879377 -0.0130672 0
0.100398 -0.00845207 0
0.0838551 -0.0145509 0
0.0867286 -0.0137279 0
0.075983 -0.0151556 0
0.101586 -0.00998791 0
0.0476358 -0.00997383 0
0.100343 -0.00907547 0
0.0896098 -0.0129615 0
0.0822843 -0.0151306 0
0.0869813 -0.0140154 0
0.102584 -0.0113613 0
0.0987977 -0.00782496 0
0.0964485 -0.0122155 0
0.100272 -0.00986555 0
0.0987689 -0.00823312 0
0.0872266 -0.0143095 0
0.0805581 -0.0156989 0
0.0987334 -0.00872604 0
0.0856889 -0.0149792 0
0.0857731 -0.0150692 0
0.100204 -0.0106229 0
0.0902277 -0.0137847 0
0.0887696 -0.014237 0
0.0986896 -0.00933336 0
0.0858964 -0.0152033 0
0.0875449 -0.0147176 0
0.102181 -0.0127256 0
0.0860724 -0.0154005 0
0.0782053 -0.0161546 0
0.101314 -0.0123332 0
0.098636 -0.010089 0
0.100127 -0.0115687 0
0.0878479 -0.0151377 0
0.0863173 -0.015687 0
0.0630467 -0.0142441 0
0.0934407 -0.0142213 0
0.0838198 -0.0164219 0
0.0985705 -0.0110296 0
0.0978335 -0.0139746 0
0.0759166 -0.0164394 0
0.100043 -0.0124809 0
0.0909602 -0.014883 0
0.086648 -0.016099 0
0.0882259 -0.0157119 0
0.0804777 -0.016937 0
0.100885 -0.0142832 0
0.0984903 -0.0121926 0
0 0 0
0.0999325 -0.0136112 0
0.0896927 -0.0158697 0
0.0968196 -0.0110673 0
0.0870791 -0.0166862 0
0.0885714 -0.0163058 0
0.0968101 -0.0112675 0
0.0968008 -0.0114643 0
0.0259485 -0.00566589 0
0.0855579 -0.0172777 0
0.09679 -0.0117025 0
0.100836 -0.0150359 0
0.0855957 -0.0173236 0
0.0856333 -0.0173697 0
0.0967795 -0.0119361 0
0.0916233 -0.0160317 0
0.0856883 -0.017438 0
0.0983914 -0.0136221 0
0.0998038 -0.0147025 0
0.0967664 -0.012226 0
0.0857428 -0.0175066 0
0.0987227 -0.0157946 0
0.0858212 -0.0176067 0
0.096754 -0.0125097 0
0.0858987 -0.0177074 0
0.0889764 -0.0171031 0
0.0967376 -0.0128674 0
0.0876137 -0.017516 0
0.0860077 -0.0178523 0
0.082073 -0.0181417 0
0.0473997 -0.0107478 0
0.0967221 -0.013217 0
0.0803317 -0.0181659 0
0.0861151 -0.0179985 0
0.0757487 -0.0177157 0
0.0967035 -0.0136597 0
0.0862624 -0.0182057 0
0.0996083 -0.0160338 0
0.0836188 -0.0185402 0
0.0845306 -0.0185012 0
0.0966845 -0.0140929 0
0.0864064 -0.0184156 0
0.0982474 -0.0153762 0
0.0893355 -0.017929 0
0.0966644 -0.0146426 0
0.0924026 -0.0175337 0
0.0865988 -0.0187087 0
0.0956626 -0.0175047 0
0.0779029 -0.0186734 0
0.0882343 -0.018678 0
0.0906283 -0.0181126 0
0.0966413 -0.015182 0
0.0867844 -0.019007 0
0.0993922 -0.0173227 0
0.0989687 -0.0180695 0
0.096608 -0.0158684 0
0.087024 -0.0194178 0
0.0897254 -0.0190232 0
0.0800962 -0.0194718 0
0.0946302 -0.014579 0
0.098014 -0.0175074 0
0.0852042 -0.019866 0
0.0965691 -0.0165432 0
0.0946177 -0.0149853 0
0.08527 -0.0199593 0
0.0872511 -0.0198375 0
0.085366 -0.0200979 0
0.0754911 -0.0189871 0
0.094603 -0.015457 0
0.0989566 -0.0188572 0
0.0931103 -0.019142 0
0.0855027 -0.0203011 0
0.0965098 -0.0173961 0
0.0945854 -0.0160193 0
0.0875309 -0.0204075 0
0.0888881 -0.0202849 0
0.0856921 -0.0205949 0
0.0832459 -0.0206246 0
0.0900358 -0.0201617 0
0.0945653 -0.0167033 0
0.0964412 -0.0182333 0
0.0859466 -0.0210145 0
0.0877883 -0.0209924 0
0.098325 -0.0202979 0
0.0945368 -0.0175508 0
0.0797927 -0.0207676 0
0.0976307 -0.0200431 0
0.0963403 -0.0192773 0
0.0862752 -0.0216073 0
0.0469963 -0.0114608 0
0.0623797 -0.0164624 0
0.0913523 -0.0211811 0
0.0880879 -0.0217747 0
0.0813996 -0.0214575 0
0.0944923 -0.0186102 0
0.0937722 -0.021227 0
0.0903063 -0.021641 0
0.0751432 -0.0202493 0
0.0962244 -0.0202973 0
0.0866788 -0.022436 0
0.0966341 -0.0218738 0
0.084642 -0.0223862 0
0.0923661 -0.017986 0
0.0846718 -0.0224334 0
0.0847014 -0.0224808 0
0.0883465 -0.0225808 0
0.0772862 -0.021184 0
0.0923639 -0.0181978 0
0.0894574 -0.0224778 0
0.0847447 -0.0225509 0
0.0944174 -0.0199353 0
0.0847878 -0.0226212 0
0.0923619 -0.0184071 0
0.0848495 -0.0227236 0
0.09236 -0.0186487 0
0.0849104 -0.0228266 0
0.0960554 -0.0215459 0
0.092358 -0.0188878 0
0.0849959 -0.0229742 0
0.0923563 -0.0191717 0
0.0850799 -0.0231229 0
0.0793831 -0.0221465 0
0.0923537 -0.0194534 0
0.0826431 -0.0229371 0
0.090447 -0.0231665 0
0.0851948 -0.0233329 0
0.0969235 -0.0229648 0
0.092349 -0.0197974 0
0.0871404 -0.0235826 0
0.0853066 -0.023545 0
0.0886159 -0.0236414 0
0.0942911 -0.0215772 0
0.0923429 -0.0201388 0
0.09586 -0.0227581 0
0.0942741 -0.0234216 0
0.0834397 -0.023423 0
0 0 0
0.0854552 -0.0238401 0
0.0923328 -0.0205625 0
0.0747111 -0.0215042 0
0.0855981 -0.0241392 0
0.0923206 -0.0209829 0
0.0923019 -0.0215094 0
0.0857814 -0.0245491 0
0.0888173 -0.0247349 0
0.0955769 -0.0242154 0
0.09228 -0.0220309 0
0.0940792 -0.0235783 0
0.0859538 -0.0249662 0
0.0876108 -0.0251519 0
0.0904455 -0.0250979 0
0.0789013 -0.0235124 0
0.0922472 -0.0226853 0
0.091744 -0.0252687 0
0.0897567 -0.025407 0
0.0463921 -0.0122489 0
0.0861652 -0.0255297 0
0.0837918 -0.0251508 0
0.0922091 -0.0233316 0
0.0838452 -0.0252459 0
0.0952698 -0.0256319 0
0.0839228 -0.0253871 0
0.0897586 -0.0218073 0
0.0889753 -0.0261458 0
0.0942543 -0.0261306 0
0.0840327 -0.0255934 0
0.0863567 -0.0261053 0
0.0921527 -0.0241386 0
0.0897578 -0.0222648 0
0.0818558 -0.0251998 0
0.0741992 -0.0227463 0
0.0841843 -0.0258907 0
0.0897552 -0.0227794 0
0.0763659 -0.0236841 0
0.0937343 -0.0259703 0
0.080157 -0.0250592 0
0.0920877 -0.024933 0
0.0843869 -0.0263135 0
0.0865754 -0.0268714 0
0.0897488 -0.0233752 0
0.0902806 -0.0270836 0
0.0879948 -0.0272714 0
0.0945938 -0.0272637 0
0.0897357 -0.0240827 0
0.0846464 -0.0269071 0
0.0782936 -0.0249627 0
0.0890261 -0.0276036 0
0.0919934 -0.0259151 0
0.08676 -0.0276569 0
0.0611616 -0.0186707 0
0.0897117 -0.0249377 0
0.0918855 -0.0268787 0
0.0849612 -0.0277308 0
0.025042 -0.00629287 0
0.0935757 -0.028795 0
0.0896693 -0.0259817 0
0.073608 -0.0239768 0
0.0869451 -0.0286858 0
0.0931895 -0.0287612 0
0.0917322 -0.0280522 0
0.089491 -0.0292158 0
0.0827239 -0.0278234 0
0.0827482 -0.0278714 0
0.0827723 -0.0279194 0
0.0828079 -0.0279905 0
0.0889425 -0.0294489 0
0.0828432 -0.0280617 0
0.0853141 -0.0288609 0
0.0900087 -0.0294961 0
0.0828941 -0.0281653 0
0.0895969 -0.0272602 0
0.0829442 -0.0282693 0
0.0830146 -0.0284181 0
0.0807916 -0.0276468 0
0.0776142 -0.0263921 0
0.0870531 -0.025641 0
0.0870728 -0.0297448 0
0.0830836 -0.0285678 0
0.0456329 -0.0129356 0
0.0915585 -0.0291992 0
0.0870541 -0.0258922 0
0.0881227 -0.0300902 0
0.0831778 -0.0287788 0
0.0870545 -0.0261424 0
0.0915752 -0.030411 0
0.0832692 -0.0289915 0
0.0870538 -0.0264204 0
0.0870522 -0.0266974 0
0.0833904 -0.0292865 0
0.0894759 -0.0288197 0
0.0870494 -0.0270132 0
0.0813472 -0.0286429 0