# vtk DataFile Version 3.0
File generated from DClib
ASCII

DATASET UNSTRUCTURED_GRID
POINTS 1909 float
50 0 0 
48.75 0 0 
50 1.66667 0 
47.5 0 0 
50 3.33333 0 
46.25 0 0 
50 5 0 
45 0 0 
43.75 0 0 
50 6.66667 0 
43 2 0 
42.5 0 0 
50 8.33333 0 
43 4.66667 0 
41.25 0 0 
41.075 2 0 
50 10 0 
40 0 0 
43 7.33333 0 
39.15 2 0 
38.75 0 0 
43 10 0 
37.5 0 0 
37.225 2 0 
36.25 0 0 
36 4 0 
35.3 2 0 
36 5 0 
35 0 0 
35.325 4 0 
36 6 0 
36 7 0 
34.65 4 0 
36 8 0 
33.75 0 0 
33.975 4 0 
36 9 0 
33.375 2 0 
33.3 4 0 
36 10 0 
32.5 0 0 
32.625 4 0 
33 6 0 
31.95 4 0 
33 7.45455 0 
31.45 2 0 
31.25 0 0 
31.95 6 0 
33 8.79545 0 
31.275 4 0 
33 10 0 
30.6 4 0 
30 0 0 
30.9 6 0 
29.925 4 0 
29.525 2 0 
29.85 6 0 
29.25 4 0 
28.75 0 0 
30 8 0 
30 8.45455 0 
28.575 4 0 
29.625 8 0 
30 8.90909 0 
28.8 6 0 
30 9.25 0 
29.782 8.90909 0 
30 9.59091 0 
29.9487 9.59091 0 
29.25 8 0 
29.7462 9.25 0 
30 9.79545 0 
29.897 9.59091 0 
29.564 8.90909 0 
29.9547 9.79545 0 
29.3462 8.45455 0 
29.84 9.59091 0 
30 10 0 
29.8975 9.79545 0 
29.9882 10 0 
29.9902 10.0098 0 
29.7827 9.59091 0 
29.9765 10 0 
29.9804 10.0196 0 
29.9667 10.0098 0 
29.9591 10 0 
29.9686 10.0196 0 
29.9659 10.0341 0 
29.9569 10.0196 0 
29.9418 10 0 
29.9395 10.0196 0 
29.9515 10.0485 0 
29.932 10.0098 0 
29.9424 10.0341 0 
29.8241 9.79545 0 
29.7181 9.59091 0 
29.9166 10 0 
29.9397 10.0485 0 
29.9222 10.0196 0 
29.9279 10.0485 0 
29.9305 10.0695 0 
29.8914 10 0 
29.9077 10.0341 0 
27.9 4 0 
29.897 10.0196 0 
29.9106 10.0485 0 
29.8817 10.0098 0 
29.907 10.0695 0 
29.8933 10.0485 0 
29.9095 10.0905 0 
29.8719 10.0196 0 
27.6 2 0 
29.8556 10 0 
29.8978 10.0905 0 
29.6531 9.59091 0 
29.3437 8.90909 0 
27.5 0 0 
29.8681 10.0485 0 
29.886 10.0905 0 
29.8574 10.0341 0 
29.4839 9.25 0 
29.8723 10.0695 0 
29.7289 9.79545 0 
29.836 10.0196 0 
29.8687 10.0905 0 
29.8197 10 0 
29.8797 10.1203 0 
29.843 10.0485 0 
29.8513 10.0905 0 
29.81 10.0098 0 
29.8561 10.1203 0 
29.8002 10.0196 0 
29.8221 10.0695 0 
29.8072 10.0485 0 
29.8262 10.0905 0 
29.5782 9.59091 0 
29.8498 10.1502 0 
29.7695 10 0 
29.7858 10.0341 0 
29.838 10.1502 0 
29.8215 10.1203 0 
29.8011 10.0905 0 
29.8262 10.1502 0 
29.7714 10.0485 0 
28.875 8 0 
29.75 10.0196 0 
29.8089 10.1502 0 
29.7654 10.0905 0 
29.7193 10 0 
29.7916 10.1502 0 
29.7505 10.0695 0 
29.8079 10.1921 0 
29.7713 10.1203 0 
29.7096 10.0098 0 
29.6047 9.79545 0 
29.503 9.59091 0 
29.7213 10.0485 0 
29.7665 10.1502 0 
29.6999 10.0196 0 
29.7844 10.1921 0 
29.7296 10.0905 0 
29.6856 10.0341 0 
29.7414 10.1502 0 
29.7497 10.1921 0 
29.6503 10 0 
29.7661 10.2339 0 
29.6712 10.0485 0 
29.6999 10.1203 0 
29.7543 10.2339 0 
29.6796 10.0905 0 
29.7057 10.1502 0 
29.7425 10.2339 0 
29.1235 8.90909 0 
29.6309 10.0196 0 
29.6504 10.0695 0 
29.4146 9.59091 0 
29.7252 10.2339 0 
29.6996 10.1921 0 
29.6701 10.1502 0 
29.7079 10.2339 0 
29.6296 10.0905 0 
29.5813 10 0 
29.6023 10.0485 0 
29.5716 10.0098 0 
29.6828 10.2339 0 
29.7086 10.2914 0 
29.2101 9.25 0 
29.562 10.0196 0 
29.6201 10.1502 0 
29.6578 10.2339 0 
29.4428 9.79545 0 
29.5999 10.1203 0 
29.6849 10.2914 0 
29.6283 10.1921 0 
29.5477 10.0341 0 
29.3259 9.59091 0 
29.5608 10.0905 0 
29.5335 10.0485 0 
29.6221 10.2339 0 
29.6503 10.2914 0 
29.5702 10.1502 0 
29.4881 10 0 
29.5128 10.0695 0 
29.6511 10.3489 0 
29.5866 10.2339 0 
29.6392 10.3489 0 
29.4689 10.0196 0 
29.6002 10.2914 0 
29.6273 10.3489 0 
29.4921 10.0905 0 
29.61 10.3489 0 
29.5286 10.1921 0 
29.5016 10.1502 0 
29.5368 10.2339 0 
29.5926 10.3489 0 
29.4405 10.0485 0 
29.2199 9.59091 0 
29.4626 10.1203 0 
29.3949 10 0 
28.9 8.90909 0 
29.5676 10.3489 0 
29.5291 10.2914 0 
29.3853 10.0098 0 
28.6923 8.45455 0 
29.487 10.2339 0 
29.5426 10.3489 0 
29.3758 10.0196 0 
29.5734 10.4266 0 
29.4331 10.1502 0 
29.3993 10.0905 0 
28.5 8 0 
29.3617 10.0341 0 
29.5496 10.4266 0 
29.5071 10.3489 0 
29.2327 9.79545 0 
29.3475 10.0485 0 
29.1136 9.59091 0 
29.4187 10.2339 0 
29.5148 10.4266 0 
29.4716 10.3489 0 
29.3918 10.1921 0 
29.3271 10.0695 0 
29.4298 10.2914 0 
29.2714 10 0 
29.3406 10.1502 0 
28.9208 9.25 0 
29.3066 10.0905 0 
29.4648 10.4266 0 
29.422 10.3489 0 
29.4958 10.5042 0 
29.2524 10.0196 0 
27.75 6 0 
29.3504 10.2339 0 
29.4837 10.5042 0 
29.4718 10.5042 0 
29.2774 10.1203 0 
29.4543 10.5042 0 
29.3724 10.3489 0 
29.2244 10.0485 0 
29.4369 10.5042 0 
29.3938 10.4266 0 
28.9853 9.59091 0 
29.2481 10.1502 0 
28.6766 8.90909 0 
29.4119 10.5042 0 
29.2934 10.2914 0 
27.225 4 0 
29.148 10 0 
29.2582 10.2339 0 
29.1837 10.0905 0 
29.3869 10.5042 0 
29.1385 10.0098 0 
29.3044 10.3489 0 
29.1291 10.0196 0 
29.2072 10.1921 0 
29.3514 10.5042 0 
29.1152 10.0341 0 
29.3929 10.6071 0 
29.2949 10.4266 0 
29.1013 10.0485 0 
29.3686 10.6071 0 
29.316 10.5042 0 
29.2364 10.3489 0 
28.9623 9.79545 0 
29.1257 10.1502 0 
29.1662 10.2339 0 
29.0811 10.0695 0 
28.8566 9.59091 0 
29.3336 10.6071 0 
29.2666 10.5042 0 
29.0609 10.0905 0 
28.9875 10 0 
29.2835 10.6071 0 
29.1448 10.3489 0 
29.0321 10.1203 0 
29.2173 10.5042 0 
29.1098 10.2914 0 
28.125 8 0 
28.9688 10.0196 0 
29.1594 10.4266 0 
28.611 9.25 0 
29.29 10.71 0 
28.4486 8.90909 0 
29.0443 10.2339 0 
29.0033 10.1502 0 
29.2777 10.71 0 
28.9413 10.0485 0 
29.2128 10.6071 0 
29.2655 10.71 0 
29.1497 10.5042 0 
29.2478 10.71 0 
28.7003 9.59091 0 
29.0533 10.3489 0 
29.2303 10.71 0 
28.9629 10.1921 0 
28.9013 10.0905 0 
29.2051 10.71 0 
29.0822 10.5042 0 
29.1801 10.71 0 
28.827 10 0 
29.1144 10.6071 0 
28.8177 10.0098 0 
28.9225 10.2339 0 
28.8085 10.0196 0 
29.1447 10.71 0 
28.7949 10.0341 0 
28.8443 10.1502 0 
28.977 10.4266 0 
28.9322 10.3489 0 
29.1094 10.71 0 
28.7813 10.0485 0 
28.9912 10.5042 0 
29.1562 10.8438 0 
28.5436 9.59091 0 
28.7615 10.0695 0 
28.8669 10.2914 0 
29.1313 10.8438 0 
28.6184 9.79545 0 
29.0602 10.71 0 
28.2207 8.90909 0 
28.7418 10.0905 0 
28.0378 8.45455 0 
28.9798 10.6071 0 
29.0958 10.8438 0 
29.0112 10.71 0 
28.9005 10.5042 0 
28.7136 10.1203 0 
28.7644 10.2339 0 
28.8113 10.3489 0 
29.0454 10.8438 0 
28.6223 10 0 
28.6854 10.1502 0 
28.2746 9.25 0 
28.9441 10.71 0 
28.6042 10.0196 0 
27.75 8 0 
28.9747 10.8438 0 
28.6459 10.1921 0 
28.5773 10.0485 0 
29.0225 10.9775 0 
28.3532 9.59091 0 
28.7804 10.5042 0 
28.736 10.4266 0 
28.8772 10.71 0 
29.0097 10.9775 0 
28.9971 10.9775 0 
28.799 10.6071 0 
28.9791 10.9775 0 
28.5384 10.0905 0 
28.6064 10.2339 0 
28.6543 10.3489 0 
28.9611 10.9775 0 
28.8769 10.8438 0 
27.9867 8.90909 0 
26.25 0 0 
28.9358 10.9775 0 
28.7871 10.71 0 
28.9106 10.9775 0 
28.6607 10.5042 0 
28.4177 10 0 
26.55 4 0 
28.552 10.2914 0 
28.483 10.1502 0 
28.4087 10.0098 0 
28.8751 10.9775 0 
28.3998 10.0196 0 
28.3866 10.0341 0 
28.8399 10.9775 0 
28.6974 10.71 0 
28.3735 10.0485 0 
28.1625 9.59091 0 
28.7436 10.8438 0 
28.4976 10.3489 0 
28.3543 10.0695 0 
28.791 10.9775 0 
28.4052 10.2339 0 
28.3352 10.0905 0 
28.8519 11.1481 0 
28.1869 9.79545 0 
28.5607 10.6071 0 
28.5053 10.5042 0 
28.7423 10.9775 0 
28.8258 11.1481 0 
28.308 10.1203 0 
28.5787 10.71 0 
27.904 9.25 0 
28.7893 11.1481 0 
28.424 10.4266 0 
27.7528 8.90909 0 
28.2807 10.1502 0 
28.6758 10.9775 0 
27.375 8 0 
28.7383 11.1481 0 
28.1619 10 0 
28.5649 10.8438 0 
28.2425 10.1921 0 
28.6096 10.9775 0 
28.1444 10.0196 0 
28.298 10.3489 0 
28.4605 10.71 0 
26.7 6 0 
27.9315 9.59091 0 
28.3503 10.5042 0 
28.6676 11.1481 0 
28.1187 10.0485 0 
28.2042 10.2339 0 
28.5207 10.9775 0 
28.0813 10.0905 0 
28.6814 11.3186 0 
27.3818 8.45455 0 
28.6679 11.3186 0 
28.1516 10.2914 0 
28.5703 11.1481 0 
28.6544 11.3186 0 
28.6358 11.3186 0 
27.5109 8.90909 0 
28.3072 10.71 0 
28.6173 11.3186 0 
28.2524 10.6071 0 
28.4322 10.9775 0 
28.028 10.1502 0 
28.5915 11.3186 0 
28.0989 10.3489 0 
28.33 10.8438 0 
28.5658 11.3186 0 
28.153 10.5042 0 
27.9061 10 0 
27.8975 10.0098 0 
28.5303 11.3186 0 
28.4384 11.1481 0 
27.7002 9.59091 0 
27.889 10.0196 0 
27.8765 10.0341 0 
28.4949 11.3186 0 
28.3154 10.9775 0 
27.9532 10.2339 0 
27.8639 10.0485 0 
28.0276 10.4266 0 
28.1544 10.71 0 
27.8457 10.0695 0 
27.4909 9.25 0 
28.4463 11.3186 0 
27 8 0 
27.8275 10.0905 0 
28.3979 11.3186 0 
27.8015 10.1203 0 
27.6542 9.79545 0 
25.675 2 0 
28.1991 10.9775 0 
27.2691 8.90909 0 
27.9563 10.5042 0 
28.4682 11.5318 0 
28.2625 11.1481 0 
27.7755 10.1502 0 
28.3322 11.3186 0 
27.8502 10.3489 0 
28.4401 11.5318 0 
25.875 4 0 
27.7391 10.1921 0 
28.4019 11.5318 0 
28.0268 10.8438 0 
28.2668 11.3186 0 
27.9602 10.71 0 
28.3498 11.5318 0 
27.4223 9.59091 0 
27.7026 10.2339 0 
27.5927 10 0 
28.0486 10.9775 0 
27.8616 10.6071 0 
27.5762 10.0196 0 
28.1794 11.3186 0 
28.2786 11.5318 0 
27.5519 10.0485 0 
27.6524 10.2914 0 
28.0319 11.1481 0 
27.7108 10.5042 0 
27.5167 10.0905 0 
27.0169 8.90909 0 
28.0924 11.3186 0 
27.6021 10.3489 0 
27.8988 10.9775 0 
28.1818 11.5318 0 
27.7667 10.71 0 
26.625 8 0 
28.255 11.745 0 
27.4664 10.1502 0 
28.2402 11.745 0 
28.2256 11.745 0 
28.2059 11.745 0 
27.978 11.3186 0 
26.7234 8.45455 0 
27.0259 9.25 0 
27.5342 10.4266 0 
28.1863 11.745 0 
27.1442 9.59091 0 
28.0516 11.5318 0 
28.1598 11.745 0 
27.3959 10.2339 0 
28.1334 11.745 0 
27.2793 10 0 
27.2714 10.0098 0 
27.2635 10.0196 0 
27.7086 10.9775 0 
27.6431 10.8438 0 
28.0975 11.745 0 
27.8643 11.3186 0 
27.4661 10.5042 0 
27.2518 10.0341 0 
27.2401 10.0485 0 
28.0617 11.745 0 
26.7648 8.90909 0 
27.5255 10.71 0 
27.7353 11.1481 0 
27.2231 10.0695 0 
28.0133 11.745 0 
27.2061 10.0905 0 
27.8791 11.5318 0 
27.2986 10.3489 0 
27.1818 10.1203 0 
27.9651 11.745 0 
27.3758 10.6071 0 
27.0077 9.79545 0 
27.7174 11.3186 0 
27.1576 10.1502 0 
25 0 0 
27.5193 10.9775 0 
27.9003 11.745 0 
27.1236 10.1921 0 
26.25 8 0 
27.9939 12.0061 0 
25.65 6 0 
27.8359 11.745 0 
26.8136 9.59091 0 
27.0896 10.2339 0 
27.9626 12.0061 0 
27.2853 10.71 0 
25.2 4 0 
27.5713 11.3186 0 
27.9218 12.0061 0 
26.4998 8.90909 0 
27.167 10.5042 0 
27.6541 11.5318 0 
27.0427 10.2914 0 
27.7503 11.745 0 
26.9033 10 0 
27.8677 12.0061 0 
26.8882 10.0196 0 
26.8659 10.0485 0 
26.9958 10.3489 0 
27.2836 10.9775 0 
27.6652 11.745 0 
27.3609 11.1481 0 
27.7955 12.0061 0 
26.499 9.25 0 
[...]
POINT_DATA 1909
SCALARS phi float 1
LOOKUP_TABLE default
-6.36493e+06
-4.09802e+06
-942073
-2.64627e+06
-945043
-2.34185e+06
-914630
-1.38262e+06
-1.10515e+06
-950212
-7.83864e+06
-584649
-4.87674e+06
-922546
-378423
-3.69681e+06
-1.47111e+07
-150055
-733984
-2.66202e+06
-34941.7
-1.86941e+07
20624
-1.89357e+06
48780.8
-9.77156e+06
-1.33349e+06
-228857
29025.1
-6.97202e+06
-403464
-405872
-5.07805e+06
-430660
3797.79
-5.83511e+06
-5.99308e+06
-947618
-4.45544e+06
-2.38169e+07
-17852.2
-5.14099e+06
-214459
-3.96732e+06
-257049
-707329
-41563.7
-117793
-311699
-4.60405e+06
-1.13307e+07
-3.58474e+06
-29466
-115638
-4.19711e+06
-591044
-139308
-3.30729e+06
-16140.3
-1863.56
-497.332
-3.91695e+06
-60742.7
-1244.75
-173589
-1082.76
-133498
-70744.6
-22340
-72511.2
-85096.4
-760644
-18292.9
-141783
-16838
-267301
-17529.7
-2.11148e+06
-23543.6
170.396
-8.35819e+06
-20116.7
-5010.17
245587
-3.47279e+06
-4302.78
254288
-1.6616e+06
-101034
-33082.9
-86277.1
-246824
-1.63235e+06
-91464.2
-32835.2
-19498.8
-28981.8
-63310.6
-386414
13047.5
-209073
-97704.2
25068.9
-3.13322e+06
-213605
48336
-592414
-203743
50302
-283751
-219808
-592372
-84863.1
-299260
-24472.5
-138088
413.271
58317.8
-218044
-108387
-87317.8
-220169
-46079.1
-95410.7
-206485
-173855
-370376
-5533.48
-55511.5
-183592
-318682
-59524.7
16535
6518.43
-81791.2
-24572.1
-378502
-148619
-67927.9
-451190
-276530
-29630.7
-336942
-41144.1
-91195.6
-21027.6
-410815
-4725.66
-221105
-297384
6365.95
-590696
-273198
-52559.4
-61981.2
-33312.9
-7869.97
-312587
-7091.99
-535188
24665.2
-14096.6
-98661.3
-448674
-186628
-586251
-11943.4
-48510.5
-686145
14551.2
-167540
-501585
-139516
-2740.21
-12173.1
-33774.1
-569113
-323781
-72782.5
-390124
-5396.25
-230072
-2339.68
-12378.1
-453488
-839128
-95595
-1316.69
-49917.6
-306367
-80146.3
13727.3
-732701
-280724
-2285.81
-47617.6
1744.62
-929.004
-356220
-602311
11669.9
-194795
-1134.38
-763892
-112037
-890881
-735.195
-467707
-655582
-1119.93
-745520
-61756.3
-264.544
-187709
-528207
-452.906
-47994.2
790.637
-217587
-137684
-570169
-297555
-1217.61
-271117
-77308.9
-370272
-1165.95
-981109
1498.3
211.029
-106245
-597.533
-856166
-402279
-102591
-214.67
-68313.3
-58791.5
-708356
-227540
5137.45
61.271
-250831
-193760
167.645
-106741
89.9719
-553683
-348222
-833747
-46.8864
-208114
2353.66
-974262
-726011
-75.1067
-836862
-119685
-3.81066
-605012
-419232
-67382.4
-91.4382
-142703
-692991
-41946.3
-3.75708e+06
-217852
-8225.79
0.00549178
-491695
1.78838
-170666
18.2864
-907.498
-543374
29.0473
-1.03491e+06
-260914
28.9295
-937247
-362308
-60993.1
-139046
-802.84
-268.77
10.6761
-94335
-817823
-388017
-10.5215
-203322
-684252
-52000.8
-563.341
-154966
-4193.62
-118157
-145.461
-201881
-119625
-862843
-139444
-3069.88
-799.061
-1.03442e+06
-224.715
-540703
-795344
-343371
-939215
-90940.5
-3696.6
-702767
-3015.2
-540.509
-818202
-143152
-589138
-254751
-373820
-306.479
-3273.88
-268.485
-679084
-476.854
-1667.08
-29084.1
-10745
-473010
-434.975
-149852
-1.10333e+06
-125075
-800.754
-8151.28
-1.02236e+06
-192639
-538519
-144319
-722.383
-266198
-269467
-919915
-353327
-40621.6
-1515.09
-4389.38
-7131.83
-794210
-231800
-1450.4
-134394
-449359
-419.28
-127974
-654120
-3360.02
-731.67
-857862
-119667
-41099.7
-15886.8
-137515
-1.02866e+06
-795591
-162356
-948952
-1335.43
-3423.22
-9003.14
-722772
-506597
-139462
-28622.5
-854626
-351687
-634384
-13579.8
-304894
-3.05333e+06
-7786.39
-2603.52
-483.529
-739780
-477.391
-821.272
-525037
-193462
-818.538
-163477
-299211
-8043.49
-1477.21
-585763
-5349.04
-1477.48
-978704
-254621
-39638.2
-17378.4
-386680
-902458
-2687.99
-168478
-151719
-803498
-17122.6
-144371
-2670.85
-437584
-134441
-689680
-294795
-337214
-4865.48
-234343
-444.41
-10791.9
-47770.6
-239102
-156581
-16921.7
-575920
-812.659
-4812.36
-503139
-1525.19
-703520
-254932
-825171
-8739.26
-494550
-628532
-725201
-138091
-46177.9
-541687
-32963.8
-215041
-2880.39
-619424
-8575.57
-161097
-456937
-19622.1
-427568
-350.402
-536113
-462514
-213646
-346.097
-626.816
-403762
-410000
-5415.01
-621.905
-15445.7
-29986.3
-1161.74
-172249
-518813
-142213
-1155.77
-421030
-2181.13
-344993
-735382
-230230
-143484
-15064.1
-702281
-452156
-2175.83
-579314
-10062
-663382
-3.69694e+06
-4108.69
-630292
-60237.9
-494719
-31443.7
-615034
-203308
-4112.41
-413464
-173362
-26708
-306.387
-776167
-636483
-598.017
-7659.81
-542842
-18235.5
-1173.17
-135992
-474703
-7686.13
-61271.5
-722290
-26146.7
-149092
-473519
-2295.5
-585560
-476792
-598234
-1.16751e+06
-239475
-196060
-13933.2
-494874
-271388
-907118
-632354
-4444.25
-532965
-581151
-210.299
-205.999
-56963.3
-46847.1
-693780
-745884
-13956.6
-416.128
-409.708
-594636
-142125
-31945.4
-185154
-828.038
-791223
-818.521
-1.15855e+06
-8453.03
-1636.3
-688172
-24455.5
-447152
-752850
-1622.78
-129885
-45618.6
-953841
-3188.18
-155101
-728174
-262234
-853182
-256003
-3171.95
-760463
-24370.1
-3.04081e+06
-300000
-794749
-133478
-15661.5
-1.84509e+06
-6090.16
-1.29138e+06
-554680
-830860
-146.556
-346.409
-6078.44
-53144.9
-1.2018e+06
-88051.3
-867831
-222340
-769.102
-41767
-200211
-11364.4
-906520
-2.5681e+06
-1632.24
-28131.3
-140297
-221720
-330887
-1.73275e+06
-11375.7
-161908
-720785
-3340.04
-2.25974e+06
-912429
-974000
-41447.9
-755328
-89901.5
-949827
-780244
-972353
-731683
-20670.2
-43.4318
-41.8285
-790076
-156.507
-6616.69
-4.73995e+06
-152.644
-973648
-420.739
-1.17403e+06
-780120
-412.828
-992.001
-130590
-20756.6
-948591
-69761
-88257.1
-978.344
-3.93422e+06
-748802
-48657.6
-546346
-2161.25
-406129
-12698.5
-891656
-310291
-2142.86
-165859
-1.76922e+06
-3.69237e+06
-695985
-36341.3
-249803
-4453.27
-2.80764e+06
-1.03786e+06
-70870.7
-796230
-1.037e+06
-4439.4
-137924
-1.02096e+06
-689725
-3.86342
-639454
-36411.4
-23554
-985176
-88.071
-8777.34
-819393
-329.662
-202984
-3.30288e+06
-926295
-816686
-8793.35
-906.461
-270686
-82051.1
-386079
-845757
-133519
-171809
-671250
-60572.6
-2156.35
-16601.6
-127444
-432194
-755060
-511966
-1.8142e+06
-41931.9
-899720
-4693.67
-16674.2
-1.09861e+06
-876935
-1.09557e+06
-861121
-1.06038e+06
-2.25578e+06
6.41195
5.81225
-837736
-59897.2
13.4813
-692271
-1.48009e+06
-999452
14.1965
-141916
-69.8327
-778708
-65.7695
-30154.9
-913656
-9582.57
-365.931
-276355
-3.04569e+06
-700177
-135260
-355.938
-173068
-808084
-1111.25
-3.63257e+06
-359676
-626768
-610403
-1093.21
-736909
-30288.5
-701819
-100061
-2738.49
-137845
-184074
-18546.6
-70893.2
-531863
-2714.33
-3.2857e+06
-512001
-620741
-6002.38
-52345
-124462
-946230
-1.12755e+06
-799452
-485353
-935252
-37.8238
-5984.11
15.0066
-176820
-916473
-2.30867e+06
-104547
-17.2246
-544666
-888557
-12145.3
-34094.4
-270.769
-428044
-52325.6
-850729
-474549
-1013.03
-12159.6
-792920
-803790
-132690
-2.59526e+06
-666692
-2740.01
-3.69015e+06
-254863
-119872
-23043.4
-299026
-749643
-189655
-84919.9
-174555
-539766
-6321.28
-461372
-935165
-734353
-250.249
-252.597
-23093.6
-165476
-907884
-59099.3
-110.478
-695447
-113.671
-734843
2.59938
-908771
0.87072
-1.88673e+06
-736164
2.77798
-908637
5.29735
-121775
-734953
-396093
-84245.5
-290.512
-1.43903e+06
-902996
-13181.4
-281.12
-41132
-684402
-727499
-1.64149e+06
-197227
-671692
-909571
-1220.19
-887854
-174249
-1203.54
-711133
-860051
-3394.08
-41055.1
-2.7718e+06
-683494
-862449
-3377.22
-25442
-138539
-130277
-817925
-200516
-97276.1
-3.02685e+06
-7823.49
-859413
-645038
-417.575
-1.91551e+06
-226.503
-841557
-69568.3
-404678
-46.6389
-7825.87
-765184
-855765
-449214
-167604
25.6579
-869579
-147080
-1.91118e+06
-313369
-604594
-211.775
-16066.4
-883233
-142380
-45927.2
-1.2215e+06
-896833
-1146.79
-119380
-69343.6
-704130
-16110.2
-208490
-910420
-678078
-3475.52
-1.81847e+06
-482153
-923987
-161313
-30361.1
-3.36099e+06
-1.42313e+06
-157917
-948024
-940.334
-939.451
-667.738
-110954
-670.945
-8367.37
-220648
-366.459
-937556
-371.461
-89.3252
-410517
-127136
-679390
-30503.2
-92.7497
-3.70439e+06
-1.45272e+06
-848786
-78009.4
36.2874
-696821
-367684
37.0307
-876371
-724127
-252.251
-952370
-915562
-670291
-247.196
-760491
-17639.8
-4.66506e+06
-128360
-964467
-149858
-110018
-53385
-1438.89
-803516
-1.23445e+06
-1436.53
-1.0215e+06
-217142
-2.13558e+06
-852887
-1.01422e+06
-4.46956e+06
-4351.1
-1.08761e+06
-116011
-53475.5
-910568
-4374.87
-312883
-33892.8
-1.16738e+06
-852444
-1225.03
-909.736
-439148
-4.30571e+06
-10309.8
-169739
-539.413
-981458
-124618
-137218
-1.55098e+06
-174.55
-237860
-1.26226e+06
-10407.1
38.0161
-959712
-88226.1
-3.04773e+06
-1.03615e+06
-1.06074e+06
-1.95609e+06
-200.176
-141066
-363078
-121325
-1.11187e+06
-21247.2
-1.3294e+06
-1442.29
-1.18684e+06
-60561.4
-107727
-4.49729e+06
-169195
-1.26046e+06
-1.09446e+06
-21470.6
-87996
-121698
-1.06117e+06
-4637.45
-1.33105e+06
-1.22903e+06
-873254
-2079.62
-39857.7
-1.39695e+06
-2071.15
-1682.69
-390213
-1681.17
-1210.51
-1214.39
-1.14914e+06
-690.731
-11281.3
-386384
-695.918
-109286
-206.04
-193197
-1.45147e+06
-208.861
-139301
-6.67705e+06
50.7519
-40326.2
-3.20448e+06
-252910
-104553
51.3483
-1.0575e+06
-99649.8
-604352
-297.784
-1.36923e+06
-3.92464e+06
-1.1608e+06
-1.48624e+06
-298.64
-1.49238e+06
-23470.8
-288940
-4.17792e+06
-1.2569e+06
-370400
-1911.71
-1.60791e+06
-66795.8
-1.34767e+06
-1929.55
-1.71423e+06
-140098
-1.50452e+06
-2.84966e+06
-84986.6
-1.42868e+06
-110252
-1.35323e+07
-5842.29
-1.80379e+06
-86296.1
-1.49234e+06
-2.04127e+06
-5901.08
-386041
-266841
-1.869e+06
-66743.9
-751514
-2401
-3.09965e+06
-43473.7
-1982.2
-1.53317e+06
-1456.42
-75533.4
-1.54919e+07
-1.57168e+06
-854.266
-13586.7
-1.89773e+06
-276.744
-1.53662e+06
51.8167
-154178
-195979
-13682.7
-1.86938e+06
-1.29154e+07
-296.005
-289996
-105216
-68723.9
-96434.8
-1.48702e+06
-3.3587e+06
-1.58849e+06
-2.82268e+06
-26753.9
-1.66508e+06
-2054.99
-1.77544e+06
-1.73297e+06
-420281
-73148.8
-5.15854e+06
-1.38157e+06
-26610.5
-1.78798e+06
-6362.13
-61503.2
-101969
-183098
-1.59336e+06
-1.82572e+06
-322740
-694496
-9.20951e+06
-3416.03
-3405.28
-50295.8
-2931.05
-2926.77
-2330.3
-1.84091e+06
-2331.67
-2.25766e+06
-1.21684e+06
-1625.32
-46461.1
-1628.92
-870.654
-91340.6
-873.317
-14742
-233765
-210.138
-1.82704e+06
-210.483
-1.03717e+06
63.8369
64.7109
-460718
-1.78111e+06
-46157.8
-146314
-199144
-461354
-558.328
-873765
-111241
-4.69244e+06
-560.451
-253078
-35533.3
-8.47758e+06
-1.70207e+06
-28714.3
-1.64223e+06
-2870.24
-2.05973e+06
-26766.3
-1.98123e+06
-5.26591e+06
-1.69246e+06
-2878.69
-2.10974e+06
-74651.3
-1.72266e+06
-382112
-1.59061e+06
-75325.4
-2.13785e+06
-7955.68
-282037
-1.68409e+06
-137760
-1.7381e+06
-2.14703e+06
-38508.9
-7944.45
-546098
-3674
-1.73774e+06
-3169.68
-2523.42
-2.13495e+06
-1748.56
-20674.4
-1.4446e+06
-50118.7
-73101.2
-916.775
-6.84727e+06
-1.71873e+06
-17080
-246419
-1.79079e+06
-201.548
-2.10019e+06
-1.68173e+06
62.3975
-16903.6
-2.03917e+06
-7.48329e+06
-692.269
-147816
-1.35874e+06
-1.62094e+06
-186133
-4.2754e+06
-63459.3
-104557
-1.94722e+06
-31237.4
-3313.75
-10778.1
-267702
-1.53312e+06
-5.97256e+06
-1.7919e+06
-1.82227e+06
-77955.4
-208873
-1.863e+06
-30696.4
-149266
-1.57644e+06
-1.42126e+06
-8892.19
-5.07484e+06
-385688
-1.92377e+06
-96961.7
-420061
-2.49451e+06
-4478.8
-1.69459e+06
-4477.05
-3958.06
-3961.67
-3291.59
-3300.31
-2481.53
-1.97293e+06
-18405.5
-2493.18
-179540
-1569
-1581.15
-1.32785e+06
-50721.8
-671.485
-2688.53
-732.882
-681.634
-2.00812e+06
-18612.8
-28.6574
-46846.7
-32.4552
-1.6188e+06
-2.02655e+06
-5.60608e+06
-51.3742
-1.11975e+06
-255727
-44.0872
-1.29414e+06
-48850.9
-2.02421e+06
-1358.23
-6.30101e+06
-128373
-5.93304e+06
-1323.57
-185740
-100331
-1.99689e+06
-32938.3
-1.47355e+06
-4745.41
-350816
466.812
-228074
-4630.75
-144364
-1.9377e+06
-1.43849e+06
-68736.8
-4.29656e+06
-1.67885e+06
-11025.5
-2.13474e+06
-30947
-1.78026e+06
-1.83592e+06
-280671
-4749.78
-4.43792e+06
-4167.58
-2.24206e+06
-115474
-10742.7
-316104
-3418.44
-2510.25
-1.85313e+06
-1506.91
-2.31941e+06
-50884.8
-562.883
-4637.38
-61005.7
-1.90546e+06
-20636.6
-1.68001e+06
-78.5488
-4.7976e+06
33.5294
-2.37452e+06
-1.94198e+06
-181.875
-2.41261e+06
-19664.7
-199479
-5.94608e+06
-1.96704e+06
-645208
-8.27202e+06
-1888.62
-1.47061e+06
-2.43654e+06
-60521.1
-115108
-1.9809e+06
-79946.8
-144028
-33098.3
-18166.3
-2.44332e+06
-5206.9
-5965.25
-6.65044e+06
-87059.6
-1.97751e+06
-3867.03
-61546.4
-2.41848e+06
-198110
-1.12952e+06
-30863.3
-1.94002e+06
-12886.6
-3.61812e+06
-2.33184e+06
-169923
-4953.87
-4976.23
-4267.77
-4288.2
-3390.81
-3410.36
-2.05101e+06
-2352.94
-68393.8
-2373.55
-1254.1
-1.83682e+06
-1276.34
-313.656
-218730
-331.96
-43436.6
-2.20033e+06
80.9149
-2.14939e+06
-653041
-122846
83.4933
-21786.6
-873858
-635.1
-12734.3
-2.31375e+06
-1.64899e+06
685.768
-563.422
-9.58754e+06
-94001.9
-23.7416
-6624.7
-3292.43
-1077.76
-2.38605e+06
-8.80864e+06
-6599.18
-1.86803e+06
-3097.05
-36029.3
-16343.1
-29842
-2.42218e+06
-8888
-1.35985e+06
-83657.9
-487549
-46453.6
-8566.44
-64459.5
-33666.8
-1.22447e+06
-2.41706e+06
-118620
-65461.3
-44312.4
-1.25938e+06
-7.71038e+06
-1903.72
-18388.3
150.336
-2663.15
-2.36265e+06
-85829.1
-8440.75
-22217.2
-45001.5
-17493.7
-22624.8
-701402
-32018.6
-175585
-126300
-60082.9
-2.25114e+06
-68814.2
-106612
-28986.6
-112116
-69333
-115915
-174429
-2.07028e+06
-26719.4
-68388.1
-1462.68
-124820
-169276
-497943
-36236.4
-35238.2
-39959.4
-119177
-241468
-162496
-2.0642e+06
-43474.3
-1.80646e+06
-223834
-11882.5
-2.74202e+06
-306863
-37197
-2.37225e+06
-138945
-4288.43
11237.1
-8.30577e+06
-274635
-3.03615e+06
-39720.8
-1.41115e+06
-1894.37
-4181.53
-2.53563e+06
-366535
-3.1486e+06
-63302.3
-92772.3
-2205.1
-43402.5
-320540
-38395.7
-2.55505e+06
-51726
-152573
-3.11049e+06
-805224
-68991.8
-171091
-413204
-100326
-2.47734e+06
-31146.8
-89957.4
-2.97688e+06
-349174
-38649.8
-2.33959e+06
842.706
-183303
-51299
-85069.1
-64167.3
-2.78362e+06
-53932.5
-438968
-2.16463e+06
-303904
-34909.8
-15086.9
-159419
-279166
-2.54907e+06
-361464
-45113.9
-1589.96
-1.95998e+06
-9.68693e+06
-686.677
-378049
-2.25096e+06
-496469
-440134
-232462
-48143.9
-13901.8
-1.68079e+06
-77479.8
-29154.2
-1.85271e+06
-32476
-1.20612e+07
-468832
-351789
-70536.9
-1.31203e+06
-74986.6
-154750
-31151.2
-2.25262e+06
-126697
-34139.7
-1.29072e+06
-154869
-98008.3
-418250
-1.99576e+06
-774034
-537820
-42037.6
-35777.4
-171500
-7830.84
-537693
-95871.5
-1.7566e+06
-91365.6
-187398
-324396
-151465
-290755
-1.52793e+06
-159433
-577587
-38321
31682
-139045
-28409.1
-289464
-91797.9
-21704.1
-1.29235e+06
-145057
-45709.8
-350477
-352551
-418667
-67725.1
-1.03228e+06
-1.71113e+06
-568259
-394170
-741185
-3.38148e+06
-254819
-38365.1
-24025.6
-15821.8
-17075.1
-540659
-103228
-426417
-2.72875e+06
-1.11853e+07
-485059
-15395.2
-131088
-119801
-514876
-18956.5
-1.35921e+06
-274353
1165.29
-1.08509e+07
-635096
-142444
-499128
-12585.8
15793.7
-287943
-543709
-381136
-1.37831e+06
-30759.2
-13975.8
-195628
-294555
-1.5416e+06
-8769.86
-16816.4
-414034
-685397
-1.12277e+06
-412923
-1.23227e+06
-293032
-1.72176e+06
-72145.6
-879449
-5351.88
-565458
-1.45028e+07
-6348.92
-937106
-314370
-37127.7
-217538
-644700
-4.69377e+06
-67984.2
-8186.69
-663030
-217908
-654006
-2003.42
-420612
-163756
-230010
-370995
-36306.4
-5.41977e+06
-132552
-508487
-75487.2
-323823
-194265
-1.58577e+07
-161251
-156334
-113885
322.932
-10259.4
-22231
-563517
-1.1969e+06
-538.187
9214.69
-162277
-33007.8
-3433.79
-115899
-227894
-107922
-412095
-198984
-480976
-176069
256.79
-1.24468e+06
-109550
-1.82041e+06
-255585
1029.56
-460842
-3.78305e+06
1075.98
-150694
-248503
-70654.3
-4.85228e+06
-9.13447e+06
389.704
-335313
-67840.4
-128311
-133549
-1.08911e+07
-1.75477e+07
-56900
-1074.09
-1.78494e+07
-40806.9
-173775
-383348
-1.96259e+07
-4336.15
-1.26597e+07
-38121.4
-1.44332e+07
-1512.87
-8.33144e+06
-181626
-140305
-2.59908e+06
-293525
-21939.6
-394755
-180894
-1901.21
-146088
-339734
-18455.9
-343835
-290182
-13913.2
-239168
-259357
-107966
-8864.67
-99731.3
-1.37203e+07
-35626.1
-169346
-136980
-196380
-1554.4
-4415.49
-131284
-362.994
-8263.76
-19277.6
-338.776
-215173
-35014.2
-135165
-163828
458.752
-2.00566e+07
-1.43367e+07
-155032
-1110.76
-114696
-4826.43
-97730.4
-141579
-150115
-8270.53
-140905
-100746
-10904.8
-149996
-114911
-11559.5
-106826
-318406
-1.79651e+07
-91959.7
-17169.8
-20494.1
-134560
-97527
-79609.7
-17719.6
-17364
-1.96321e+07
-28568.2
-86022.5
-15317
-29426.8
-80820.4
-13279.6
-113651
-71055.6
-40693.4
-11196.6
-39763.1
-2.45646e+07
-70572.5
-92228
-56101.9
-9117.12
-87797.2
-53000.9
-7135.35
-69923.9
-67453.7
-59531.9
-5299.13
-1.80763e+07
-2.17062e+07
-75505
-79007.4
-3692.64
-1.78767e+07
-65269.4
-2403.02
-81659
-71803.9
-1324.34
-2.90831e+07
-694.738
704.849
-99.7711
-2.52353e+07
-94990.8
-2.48753e+07
-98136
-95007
-91265.9
-2118.77
-88133.9
-84072.8
-80869.2
-76667.5
-2.20401e+07
-73535
-5403.69
-69267.1
-66211.5
-61935.4
-9363.26
-58983.8
-54819
-51996.5
-48011.5
-15491.8
-45479.5
-2.21472e+07
-41758.4
-39518.6
-20047.7
-36087.9
-34374
-35493.2
-31956.8
-29884.6
-27229.4
-12677.8
-6476.13
-2345.44
-2.62105e+07
-270.689
-3.02692e+07
559.677
1024.1
663.983
-261.213
-1371.51
-3259.92
-5508.09
-9617.49
-2.65693e+07
-11693.5
-13840.2
-20761.9
-3.05673e+07
-11537.6
-32664.8
-9608.89
-7811.26
-6134.45
-4588.26
-3183.54
-3.58778e+07
-1940.38
-885.649
-22.2634
683.328
1162.72
1158.1
-3.11892e+07
2061.68
-881.125
-6163.94
-17274.6
-34217.7
-4.19953e+07
-64194
-82012.2
-135295
-3.64793e+07
-16362.8
-14928.5
-13861.5
-12845.9
-11821.9
-10893.6
-9945.53
-9087.96
-8220.86
-7428.78
-6641.14
-5910.64
-5208.43
-4544.47
-3915.11
-3318.87
-2761.92
-2246.42
-1748.64
-1271.44
-837.676
-392.437
-74.2179
767.915
791.065
-234.907
2193.4
393.355
-1824.79
-4516.56
-10028.6
-16167.1
-25557.5
-35040.2
-47295.8
-68642.8
-87365.3
-98499.2
-123621
-151477
SCALARS cohesion float 1
LOOKUP_TABLE default
9.31481
7.8569
8.98326
7.54935
9.07321
8.02118
6.31456
8.61267
8.76241
6.50834
11.1147
8.96972
6.08744
7.81884
9.22805
11.1387
7.75839
9.72125
6.95021
9.3672
10.5375
5.71774
11.4476
8.19372
12.4554
6.08945
7.50586
6.33445
13.1391
5.63888
8.26641
8.21473
5.19083
5.69512
12.5491
5.40988
5.57327
6.96632
5.65439
6.0782
11.7148
5.89788
7.32607
6.1542
5.76224
6.15885
10.1012
7.77615
5.63597
6.33022
6.7264
6.47997
8.91452
8.01677
6.58051
5.55608
8.05267
6.65799
8.26946
4.68227
5.76716
6.84046
4.63796
6.52842
8.16484
5.77457
5.50501
6.35636
6.15818
4.37513
5.27218
6.7963
6.47609
5.13987
7.01034
6.24188
6.33272
7.67263
6.90159
7.12747
6.66478
6.26148
6.48737
6.92773
6.83984
6.63286
6.82543
6.76318
6.7543
6.75553
6.76396
6.76606
6.80857
6.78021
6.90532
6.26605
6.72585
6.75718
6.77928
6.74182
6.71499
6.6998
6.76822
7.08701
6.77281
6.74301
6.80824
6.71541
6.74299
6.68818
6.76583
5.56476
6.71099
6.68405
6.27368
5.08648
7.72378
6.73913
6.68137
6.76257
5.22174
6.71047
6.87958
6.7632
6.67918
6.71767
6.63139
6.73557
6.67732
6.79386
6.62866
6.7615
6.70417
6.73131
6.67404
6.27159
6.58333
6.72124
6.75315
6.58175
6.62395
6.67071
6.57986
6.72696
4.36748
6.75529
6.57765
6.66625
6.71824
6.57539
6.6951
6.51441
6.6175
6.781
6.85929
6.27806
6.7214
6.5722
6.75101
6.51137
6.6621
6.7413
6.56915
6.50701
6.71714
6.46595
6.71595
6.60903
6.46439
6.65644
6.56491
6.46294
5.15842
6.74467
6.68421
6.27635
6.46072
6.50093
6.56092
6.45858
6.6516
6.71682
6.70964
6.76739
6.45572
6.45142
5.16021
6.73929
6.55584
6.45298
6.84181
6.59886
6.44863
6.4932
6.72867
6.28789
6.64536
6.70432
6.44917
6.44482
6.55115
6.71294
6.67283
6.45017
6.44563
6.44889
6.73429
6.43959
6.44764
6.64078
6.44582
6.4842
6.54602
6.44127
6.44405
6.69902
6.28969
6.58877
6.71161
5.08906
6.44163
6.43319
6.75569
6.0964
6.43755
6.43939
6.73111
6.46305
6.54181
6.63585
4.31974
6.71973
6.46085
6.43656
6.83645
6.69597
6.2942
6.43302
6.45794
6.43402
6.47564
6.66527
6.42606
6.71416
6.53818
5.13224
6.63414
6.45425
6.43065
6.52402
6.7307
8.5725
6.4299
6.5231
6.52219
6.58351
6.52094
6.42797
6.69698
6.51975
6.44966
6.30728
6.53802
5.06065
6.51816
6.4209
7.23726
6.71633
6.42858
6.63565
6.51668
6.75963
6.42592
6.73565
6.47314
6.51519
6.72493
6.59515
6.44621
6.70209
6.59404
6.51408
6.42523
6.85749
6.54043
6.42886