# vtk DataFile Version 3.0
File generated from DClib
ASCII

DATASET UNSTRUCTURED_GRID
POINTS 1909 float
50 0 0 
48.75 0 0 
50 1.66667 0 
47.5 0 0 
50 3.33333 0 
46.25 0 0 
50 5 0 
45 0 0 
43.75 0 0 
50 6.66667 0 
43 2 0 
42.5 0 0 
50 8.33333 0 
43 4.66667 0 
41.25 0 0 
41.075 2 0 
50 10 0 
40 0 0 
43 7.33333 0 
39.15 2 0 
38.75 0 0 
43 10 0 
37.5 0 0 
37.225 2 0 
36.25 0 0 
36 4 0 
35.3 2 0 
36 5 0 
35 0 0 
35.325 4 0 
36 6 0 
36 7 0 
34.65 4 0 
36 8 0 
33.75 0 0 
33.975 4 0 
36 9 0 
33.375 2 0 
33.3 4 0 
36 10 0 
32.5 0 0 
32.625 4 0 
33 6 0 
31.95 4 0 
33 7.45455 0 
31.45 2 0 
31.25 0 0 
31.95 6 0 
33 8.79545 0 
31.275 4 0 
33 10 0 
30.6 4 0 
30 0 0 
30.9 6 0 
29.925 4 0 
29.525 2 0 
29.85 6 0 
29.25 4 0 
28.75 0 0 
30 8 0 
30 8.45455 0 
28.575 4 0 
29.625 8 0 
30 8.90909 0 
28.8 6 0 
30 9.25 0 
29.782 8.90909 0 
30 9.59091 0 
29.9487 9.59091 0 
29.25 8 0 
29.7462 9.25 0 
30 9.79545 0 
29.897 9.59091 0 
29.564 8.90909 0 
29.9547 9.79545 0 
29.3462 8.45455 0 
29.84 9.59091 0 
30 10 0 
29.8975 9.79545 0 
29.9882 10 0 
29.9902 10.0098 0 
29.7827 9.59091 0 
29.9765 10 0 
29.9804 10.0196 0 
29.9667 10.0098 0 
29.9591 10 0 
29.9686 10.0196 0 
29.9659 10.0341 0 
29.9569 10.0196 0 
29.9418 10 0 
29.9395 10.0196 0 
29.9515 10.0485 0 
29.932 10.0098 0 
29.9424 10.0341 0 
29.8241 9.79545 0 
29.7181 9.59091 0 
29.9166 10 0 
29.9397 10.0485 0 
29.9222 10.0196 0 
29.9279 10.0485 0 
29.9305 10.0695 0 
29.8914 10 0 
29.9077 10.0341 0 
27.9 4 0 
29.897 10.0196 0 
29.9106 10.0485 0 
29.8817 10.0098 0 
29.907 10.0695 0 
29.8933 10.0485 0 
29.9095 10.0905 0 
29.8719 10.0196 0 
27.6 2 0 
29.8556 10 0 
29.8978 10.0905 0 
29.6531 9.59091 0 
29.3437 8.90909 0 
27.5 0 0 
29.8681 10.0485 0 
29.886 10.0905 0 
29.8574 10.0341 0 
29.4839 9.25 0 
29.8723 10.0695 0 
29.7289 9.79545 0 
29.836 10.0196 0 
29.8687 10.0905 0 
29.8197 10 0 
29.8797 10.1203 0 
29.843 10.0485 0 
29.8513 10.0905 0 
29.81 10.0098 0 
29.8561 10.1203 0 
29.8002 10.0196 0 
29.8221 10.0695 0 
29.8072 10.0485 0 
29.8262 10.0905 0 
29.5782 9.59091 0 
29.8498 10.1502 0 
29.7695 10 0 
29.7858 10.0341 0 
29.838 10.1502 0 
29.8215 10.1203 0 
29.8011 10.0905 0 
29.8262 10.1502 0 
29.7714 10.0485 0 
28.875 8 0 
29.75 10.0196 0 
29.8089 10.1502 0 
29.7654 10.0905 0 
29.7193 10 0 
29.7916 10.1502 0 
29.7505 10.0695 0 
29.8079 10.1921 0 
29.7713 10.1203 0 
29.7096 10.0098 0 
29.6047 9.79545 0 
29.503 9.59091 0 
29.7213 10.0485 0 
29.7665 10.1502 0 
29.6999 10.0196 0 
29.7844 10.1921 0 
29.7296 10.0905 0 
29.6856 10.0341 0 
29.7414 10.1502 0 
29.7497 10.1921 0 
29.6503 10 0 
29.7661 10.2339 0 
29.6712 10.0485 0 
29.6999 10.1203 0 
29.7543 10.2339 0 
29.6796 10.0905 0 
29.7057 10.1502 0 
29.7425 10.2339 0 
29.1235 8.90909 0 
29.6309 10.0196 0 
29.6504 10.0695 0 
29.4146 9.59091 0 
29.7252 10.2339 0 
29.6996 10.1921 0 
29.6701 10.1502 0 
29.7079 10.2339 0 
29.6296 10.0905 0 
29.5813 10 0 
29.6023 10.0485 0 
29.5716 10.0098 0 
29.6828 10.2339 0 
29.7086 10.2914 0 
29.2101 9.25 0 
29.562 10.0196 0 
29.6201 10.1502 0 
29.6578 10.2339 0 
29.4428 9.79545 0 
29.5999 10.1203 0 
29.6849 10.2914 0 
29.6283 10.1921 0 
29.5477 10.0341 0 
29.3259 9.59091 0 
29.5608 10.0905 0 
29.5335 10.0485 0 
29.6221 10.2339 0 
29.6503 10.2914 0 
29.5702 10.1502 0 
29.4881 10 0 
29.5128 10.0695 0 
29.6511 10.3489 0 
29.5866 10.2339 0 
29.6392 10.3489 0 
29.4689 10.0196 0 
29.6002 10.2914 0 
29.6273 10.3489 0 
29.4921 10.0905 0 
29.61 10.3489 0 
29.5286 10.1921 0 
29.5016 10.1502 0 
29.5368 10.2339 0 
29.5926 10.3489 0 
29.4405 10.0485 0 
29.2199 9.59091 0 
29.4626 10.1203 0 
29.3949 10 0 
28.9 8.90909 0 
29.5676 10.3489 0 
29.5291 10.2914 0 
29.3853 10.0098 0 
28.6923 8.45455 0 
29.487 10.2339 0 
29.5426 10.3489 0 
29.3758 10.0196 0 
29.5734 10.4266 0 
29.4331 10.1502 0 
29.3993 10.0905 0 
28.5 8 0 
29.3617 10.0341 0 
29.5496 10.4266 0 
29.5071 10.3489 0 
29.2327 9.79545 0 
29.3475 10.0485 0 
29.1136 9.59091 0 
29.4187 10.2339 0 
29.5148 10.4266 0 
29.4716 10.3489 0 
29.3918 10.1921 0 
29.3271 10.0695 0 
29.4298 10.2914 0 
29.2714 10 0 
29.3406 10.1502 0 
28.9208 9.25 0 
29.3066 10.0905 0 
29.4648 10.4266 0 
29.422 10.3489 0 
29.4958 10.5042 0 
29.2524 10.0196 0 
27.75 6 0 
29.3504 10.2339 0 
29.4837 10.5042 0 
29.4718 10.5042 0 
29.2774 10.1203 0 
29.4543 10.5042 0 
29.3724 10.3489 0 
29.2244 10.0485 0 
29.4369 10.5042 0 
29.3938 10.4266 0 
28.9853 9.59091 0 
29.2481 10.1502 0 
28.6766 8.90909 0 
29.4119 10.5042 0 
29.2934 10.2914 0 
27.225 4 0 
29.148 10 0 
29.2582 10.2339 0 
29.1837 10.0905 0 
29.3869 10.5042 0 
29.1385 10.0098 0 
29.3044 10.3489 0 
29.1291 10.0196 0 
29.2072 10.1921 0 
29.3514 10.5042 0 
29.1152 10.0341 0 
29.3929 10.6071 0 
29.2949 10.4266 0 
29.1013 10.0485 0 
29.3686 10.6071 0 
29.316 10.5042 0 
29.2364 10.3489 0 
28.9623 9.79545 0 
29.1257 10.1502 0 
29.1662 10.2339 0 
29.0811 10.0695 0 
28.8566 9.59091 0 
29.3336 10.6071 0 
29.2666 10.5042 0 
29.0609 10.0905 0 
28.9875 10 0 
29.2835 10.6071 0 
29.1448 10.3489 0 
29.0321 10.1203 0 
29.2173 10.5042 0 
29.1098 10.2914 0 
28.125 8 0 
28.9688 10.0196 0 
29.1594 10.4266 0 
28.611 9.25 0 
29.29 10.71 0 
28.4486 8.90909 0 
29.0443 10.2339 0 
29.0033 10.1502 0 
29.2777 10.71 0 
28.9413 10.0485 0 
29.2128 10.6071 0 
29.2655 10.71 0 
29.1497 10.5042 0 
29.2478 10.71 0 
28.7003 9.59091 0 
29.0533 10.3489 0 
29.2303 10.71 0 
28.9629 10.1921 0 
28.9013 10.0905 0 
29.2051 10.71 0 
29.0822 10.5042 0 
29.1801 10.71 0 
28.827 10 0 
29.1144 10.6071 0 
28.8177 10.0098 0 
28.9225 10.2339 0 
28.8085 10.0196 0 
29.1447 10.71 0 
28.7949 10.0341 0 
28.8443 10.1502 0 
28.977 10.4266 0 
28.9322 10.3489 0 
29.1094 10.71 0 
28.7813 10.0485 0 
28.9912 10.5042 0 
29.1562 10.8438 0 
28.5436 9.59091 0 
28.7615 10.0695 0 
28.8669 10.2914 0 
29.1313 10.8438 0 
28.6184 9.79545 0 
29.0602 10.71 0 
28.2207 8.90909 0 
28.7418 10.0905 0 
28.0378 8.45455 0 
28.9798 10.6071 0 
29.0958 10.8438 0 
29.0112 10.71 0 
28.9005 10.5042 0 
28.7136 10.1203 0 
28.7644 10.2339 0 
28.8113 10.3489 0 
29.0454 10.8438 0 
28.6223 10 0 
28.6854 10.1502 0 
28.2746 9.25 0 
28.9441 10.71 0 
28.6042 10.0196 0 
27.75 8 0 
28.9747 10.8438 0 
28.6459 10.1921 0 
28.5773 10.0485 0 
29.0225 10.9775 0 
28.3532 9.59091 0 
28.7804 10.5042 0 
28.736 10.4266 0 
28.8772 10.71 0 
29.0097 10.9775 0 
28.9971 10.9775 0 
28.799 10.6071 0 
28.9791 10.9775 0 
28.5384 10.0905 0 
28.6064 10.2339 0 
28.6543 10.3489 0 
28.9611 10.9775 0 
28.8769 10.8438 0 
27.9867 8.90909 0 
26.25 0 0 
28.9358 10.9775 0 
28.7871 10.71 0 
28.9106 10.9775 0 
28.6607 10.5042 0 
28.4177 10 0 
26.55 4 0 
28.552 10.2914 0 
28.483 10.1502 0 
28.4087 10.0098 0 
28.8751 10.9775 0 
28.3998 10.0196 0 
28.3866 10.0341 0 
28.8399 10.9775 0 
28.6974 10.71 0 
28.3735 10.0485 0 
28.1625 9.59091 0 
28.7436 10.8438 0 
28.4976 10.3489 0 
28.3543 10.0695 0 
28.791 10.9775 0 
28.4052 10.2339 0 
28.3352 10.0905 0 
28.8519 11.1481 0 
28.1869 9.79545 0 
28.5607 10.6071 0 
28.5053 10.5042 0 
28.7423 10.9775 0 
28.8258 11.1481 0 
28.308 10.1203 0 
28.5787 10.71 0 
27.904 9.25 0 
28.7893 11.1481 0 
28.424 10.4266 0 
27.7528 8.90909 0 
28.2807 10.1502 0 
28.6758 10.9775 0 
27.375 8 0 
28.7383 11.1481 0 
28.1619 10 0 
28.5649 10.8438 0 
28.2425 10.1921 0 
28.6096 10.9775 0 
28.1444 10.0196 0 
28.298 10.3489 0 
28.4605 10.71 0 
26.7 6 0 
27.9315 9.59091 0 
28.3503 10.5042 0 
28.6676 11.1481 0 
28.1187 10.0485 0 
28.2042 10.2339 0 
28.5207 10.9775 0 
28.0813 10.0905 0 
28.6814 11.3186 0 
27.3818 8.45455 0 
28.6679 11.3186 0 
28.1516 10.2914 0 
28.5703 11.1481 0 
28.6544 11.3186 0 
28.6358 11.3186 0 
27.5109 8.90909 0 
28.3072 10.71 0 
28.6173 11.3186 0 
28.2524 10.6071 0 
28.4322 10.9775 0 
28.028 10.1502 0 
28.5915 11.3186 0 
28.0989 10.3489 0 
28.33 10.8438 0 
28.5658 11.3186 0 
28.153 10.5042 0 
27.9061 10 0 
27.8975 10.0098 0 
28.5303 11.3186 0 
28.4384 11.1481 0 
27.7002 9.59091 0 
27.889 10.0196 0 
27.8765 10.0341 0 
28.4949 11.3186 0 
28.3154 10.9775 0 
27.9532 10.2339 0 
27.8639 10.0485 0 
28.0276 10.4266 0 
28.1544 10.71 0 
27.8457 10.0695 0 
27.4909 9.25 0 
28.4463 11.3186 0 
27 8 0 
27.8275 10.0905 0 
28.3979 11.3186 0 
27.8015 10.1203 0 
27.6542 9.79545 0 
25.675 2 0 
28.1991 10.9775 0 
27.2691 8.90909 0 
27.9563 10.5042 0 
28.4682 11.5318 0 
28.2625 11.1481 0 
27.7755 10.1502 0 
28.3322 11.3186 0 
27.8502 10.3489 0 
28.4401 11.5318 0 
25.875 4 0 
27.7391 10.1921 0 
28.4019 11.5318 0 
28.0268 10.8438 0 
28.2668 11.3186 0 
27.9602 10.71 0 
28.3498 11.5318 0 
27.4223 9.59091 0 
27.7026 10.2339 0 
27.5927 10 0 
28.0486 10.9775 0 
27.8616 10.6071 0 
27.5762 10.0196 0 
28.1794 11.3186 0 
28.2786 11.5318 0 
27.5519 10.0485 0 
27.6524 10.2914 0 
28.0319 11.1481 0 
27.7108 10.5042 0 
27.5167 10.0905 0 
27.0169 8.90909 0 
28.0924 11.3186 0 
27.6021 10.3489 0 
27.8988 10.9775 0 
28.1818 11.5318 0 
27.7667 10.71 0 
26.625 8 0 
28.255 11.745 0 
27.4664 10.1502 0 
28.2402 11.745 0 
28.2256 11.745 0 
28.2059 11.745 0 
27.978 11.3186 0 
26.7234 8.45455 0 
27.0259 9.25 0 
27.5342 10.4266 0 
28.1863 11.745 0 
27.1442 9.59091 0 
28.0516 11.5318 0 
28.1598 11.745 0 
27.3959 10.2339 0 
28.1334 11.745 0 
27.2793 10 0 
27.2714 10.0098 0 
27.2635 10.0196 0 
27.7086 10.9775 0 
27.6431 10.8438 0 
28.0975 11.745 0 
27.8643 11.3186 0 
27.4661 10.5042 0 
27.2518 10.0341 0 
27.2401 10.0485 0 
28.0617 11.745 0 
26.7648 8.90909 0 
27.5255 10.71 0 
27.7353 11.1481 0 
27.2231 10.0695 0 
28.0133 11.745 0 
27.2061 10.0905 0 
27.8791 11.5318 0 
27.2986 10.3489 0 
27.1818 10.1203 0 
27.9651 11.745 0 
27.3758 10.6071 0 
27.0077 9.79545 0 
27.7174 11.3186 0 
27.1576 10.1502 0 
25 0 0 
27.5193 10.9775 0 
27.9003 11.745 0 
27.1236 10.1921 0 
26.25 8 0 
27.9939 12.0061 0 
25.65 6 0 
27.8359 11.745 0 
26.8136 9.59091 0 
27.0896 10.2339 0 
27.9626 12.0061 0 
27.2853 10.71 0 
25.2 4 0 
27.5713 11.3186 0 
27.9218 12.0061 0 
26.4998 8.90909 0 
27.167 10.5042 0 
27.6541 11.5318 0 
27.0427 10.2914 0 
27.7503 11.745 0 
26.9033 10 0 
27.8677 12.0061 0 
26.8882 10.0196 0 
26.8659 10.0485 0 
26.9958 10.3489 0 
27.2836 10.9775 0 
27.6652 11.745 0 
27.3609 11.1481 0 
27.7955 12.0061 0 
26.499 9.25 0 
[...]
POINT_DATA 1909
SCALARS phi float 1
LOOKUP_TABLE default
VECTORS Displacement float
0 0 0
0 0 0
0 -0.000244393 0
0 0 0
0 -0.000333081 0
0 0 0
0 -0.000279825 0
0 0 0
0 0 0
0 -9.9615e-05 0
0.000720469 -0.00022299 0
0 0 0
0 0.000198634 0
0.00141264 -0.000137711 0
0 0 0
0.000967023 -0.000220144 0
0 0.000598212 0
0 0 0
0.00189208 0.000315077 0
0.00123596 -0.000223851 0
0 0 0
0.00217137 0.00102522 0
0 0 0
0.00152141 -0.000239043 0
0 0 0
0.00290448 -0.000168474 0
0.00180784 -0.000265503 0
0.00345577 -4.4448e-06 0
0 0 0
0.00311008 -0.000183086 0
0.00387326 0.000224669 0
0.00417389 0.000504011 0
0.00330984 -0.000200824 0
0.004385 0.000811271 0
0 0 0
0.00350719 -0.000229009 0
0.00452068 0.00113792 0
0.00207861 -0.000301518 0
0.00369755 -0.000260805 0
0.00459723 0.00146845 0
0 0 0
0.00387753 -0.000298618 0
0.00501811 7.7657e-05 0
0.00404832 -0.000339956 0
0.00556631 0.000521797 0
0.00231906 -0.000345563 0
0 0 0
0.00540384 -8.34177e-05 0
0.00584351 0.00105962 0
0.00420607 -0.00038545 0
0.00585518 0.00161205 0
0.00435218 -0.000434311 0
0 0 0
0.00572362 -0.000242332 0
0.00448464 -0.000486557 0
0.00251666 -0.0003968 0
0.00599339 -0.000409598 0
0.00460315 -0.000542199 0
0 0 0
0.00702333 -5.79545e-05 0
0.00722121 6.34436e-05 0
0.00470765 -0.000600728 0
0.00714522 -0.000167573 0
0.00741406 0.000204758 0
0.00621588 -0.000589266 0
0.00753392 0.000340129 0
0.00750272 0.00010805 0
0.00762851 0.000503337 0
0.0076569 0.000439933 0
0.00725162 -0.000276671 0
0.00764004 0.000184657 0
0.00763115 0.000623237 0
0.00767929 0.000386192 0
0.00757764 1.34339e-05 0
0.00766352 0.000542596 0
0.00744405 -0.000164589 0
0.00769955 0.000334612 0
0.00757061 0.000749611 0
0.00770096 0.000461437 0
0.007581 0.00076253 0
0.00853647 0.00116073 0
0.00771638 0.000290134 0
0.00759602 0.000764343 0
0.00868669 0.00124147 0
0.0083548 0.00104665 0
0.00762113 0.000735576 0
0.00865256 0.00116538 0
0.00862097 0.00116333 0
0.00861111 0.00109824 0
0.00764722 0.000704619 0
0.00852479 0.00100405 0
0.00853983 0.00108111 0
0.00819681 0.00088742 0
0.00858451 0.00102658 0
0.00773982 0.00038289 0
0.00773868 0.000252478 0
0.00768602 0.000647885 0
0.00852957 0.00101297 0
0.00843576 0.000921108 0
0.00851605 0.000950788 0
0.00845978 0.000972815 0
0.00772426 0.000604615 0
0.00848838 0.000868403 0
0.00479629 -0.000663044 0
0.00832175 0.000816192 0
0.00849086 0.000872264 0
0.00806181 0.000711142 0
0.00844013 0.000851653 0
0.00845942 0.000806813 0
0.0084022 0.00087104 0
0.00823648 0.000737365 0
0.00266003 -0.000454859 0
0.00777666 0.000555973 0
0.00839415 0.000812899 0
0.00776075 0.000219892 0
0.00764821 -7.27092e-05 0
0 0 0
0.00841113 0.000736519 0
0.00838529 0.000763799 0
0.00833575 0.000718685 0
0.00772813 5.99198e-05 0
0.00840098 0.000726107 0
0.00779086 0.000323269 0
0.00815248 0.000653114 0
0.00837063 0.000704433 0
0.0078275 0.000521443 0
0.00834915 0.000742982 0
0.00836094 0.000683132 0
0.00835651 0.000660342 0
0.00800407 0.000575643 0
0.00833967 0.000662641 0
0.00811162 0.000594758 0
0.00833738 0.000624834 0
0.00830081 0.000624051 0
0.00833571 0.000613391 0
0.00779001 0.000190156 0
0.00831662 0.000643847 0
0.00789251 0.000492066 0
0.00820178 0.000593771 0
0.00831668 0.000614928 0
0.00832527 0.000590608 0
0.00831608 0.000577079 0
0.00831668 0.000591364 0
0.00825073 0.000576721 0
0.00735352 -0.000386325 0
0.00808474 0.000536067 0
0.00831633 0.000564147 0
0.00829044 0.000537467 0
0.00795227 0.000465434 0
0.00831548 0.000541715 0
0.00826147 0.000537134 0
0.0083332 0.000561607 0
0.00830614 0.000527969 0
0.00802551 0.000482548 0
0.00786883 0.000280493 0
0.00782245 0.000163516 0
0.00820244 0.000520483 0
0.00831329 0.000515463 0
0.00808446 0.000490197 0
0.00833307 0.000530929 0
0.00826929 0.000504489 0
0.00813704 0.000485142 0
0.00831068 0.000494025 0
0.0083339 0.000497706 0
0.00802124 0.00043712 0
0.00835996 0.000510625 0
0.00817657 0.000474503 0
0.00828431 0.000470904 0
0.00836088 0.000501133 0
0.00824842 0.000467393 0
0.00830735 0.000468871 0
0.00836204 0.000492046 0
0.00771633 -0.000152542 0
0.00809759 0.000441251 0
0.00821035 0.000454255 0
0.00786189 0.000134459 0
0.00836395 0.00047977 0
0.00833584 0.000462495 0
0.00830467 0.000448578 0
0.00836606 0.000468501 0
0.00823694 0.000437478 0
0.00807573 0.000398272 0
0.00816871 0.000426516 0
0.00810154 0.000397491 0
0.00836886 0.000454114 0
0.00841863 0.000469796 0
0.00782244 -4.28184e-05 0
0.00812506 0.000395491 0
0.00830283 0.000425142 0
0.00837166 0.000441346 0
0.00797117 0.000230045 0
0.00827018 0.000419079 0
0.00841948 0.000456948 0
0.00833877 0.000427156 0
0.00815337 0.000390722 0
0.00790398 0.000105375 0
0.00823412 0.000401904 0
0.00817819 0.000385371 0
0.00837517 0.00042537 0
0.00842162 0.000440083 0
0.00830203 0.0004044 0
0.00812936 0.000345139 0
0.00821069 0.000376936 0
0.00847261 0.0004403 0
0.00837824 0.000410833 0
0.0084732 0.000435464 0
0.00816027 0.000341022 0
0.00842574 0.000418535 0
0.00847389 0.000430704 0
0.00823994 0.00036821 0
0.00847504 0.00042378 0
0.00834427 0.00038736 0
0.00830633 0.000374949 0
0.00838251 0.000391351 0
0.00847634 0.000416911 0
0.00820368 0.000332609 0
0.00795101 6.79397e-05 0
0.00827809 0.000356101 0
0.0081709 0.000290778 0
0.0077839 -0.000230712 0
0.00847819 0.000407228 0
0.00843216 0.000390431 0
0.00818472 0.000288946 0
0.0076258 -0.000376695 0
0.00838658 0.000371702 0
0.00848016 0.000397527 0
0.00819853 0.000287049 0
0.00854437 0.000409345 0
0.00831327 0.000344117 0
0.00825982 0.000318614 0
0.0074446 -0.000498581 0
0.00821694 0.000283974 0
0.00854498 0.000400719 0
0.00848295 0.000383798 0
0.00807555 0.000147192 0
0.00823522 0.000280601 0
0.00799779 2.84674e-05 0
0.00839376 0.000342795 0
0.0085463 0.000387901 0
0.00848588 0.000369831 0
0.00835907 0.000327878 0
0.00826049 0.000275234 0
0.00844168 0.000350535 0
0.0082174 0.000230546 0
0.00833025 0.000297663 0
0.00792414 -0.000146132 0
0.00828501 0.000269462 0
0.00854892 0.000368854 0
0.00849015 0.000349785 0
0.00860788 0.000379826 0
0.00823971 0.000226434 0
0.00638853 -0.000782407 0
0.00840238 0.000311924 0
0.00860819 0.000375527 0
0.00860854 0.00037117 0
0.00831845 0.000260589 0
0.00860912 0.000364725 0
0.00849479 0.000328973 0
0.00827237 0.000219507 0
0.00860976 0.000358166 0
0.00855357 0.00034058 0
0.00804962 -2.23229e-05 0
0.00835038 0.000251195 0
0.00785065 -0.000309331 0
0.00861079 0.000348533 0
0.00845788 0.000290021 0
0.00487017 -0.000727513 0
0.00825826 0.000169148 0
0.00841723 0.000267663 0
0.0083177 0.000208157 0
0.00861195 0.000338685 0
0.0082689 0.000166943 0
0.00850194 0.000299024 0
0.00827944 0.000164637 0
0.00839311 0.000237288 0
0.00861377 0.000324357 0
0.00829437 0.000161165 0
0.00868318 0.000340035 0
0.00856152 0.00029852 0
0.00830906 0.000157544 0
0.00868374 0.000330792 0
0.00861584 0.00030964 0
0.00851006 0.000267736 0
0.00818119 2.82517e-05 0
0.00837851 0.000189996 0
0.0084336 0.000222636 0
0.00833008 0.000152012 0
0.00809937 -7.58548e-05 0
0.00868477 0.000317036 0
0.00861908 0.000288459 0
0.00835068 0.00014619 0
0.00830702 9.12924e-05 0
0.00868661 0.000296619 0
0.00852227 0.000224058 0
0.0083793 0.000137395 0
0.00862271 0.000266648 0
0.0084861 0.000201465 0
0.00752983 -0.000613675 0
0.00832559 8.63073e-05 0
0.00857505 0.000236496 0
0.00802573 -0.000263956 0
0.0087495 0.000298053 0
0.00791455 -0.000391705 0
0.008457 0.000161578 0
0.00840715 0.000128083 0
0.00874975 0.000293124 0
0.0083527 7.84611e-05 0
0.00868991 0.00026646 0
0.00875002 0.000288175 0
0.00862832 0.000235685 0
0.00875045 0.000280945 0
0.0081536 -0.000144046 0
0.00853538 0.000179153 0
0.00875093 0.000273653 0
0.00844476 0.000114235 0
0.00839087 6.6191e-05 0
0.00875168 0.00026305 0
0.00863451 0.000203807 0
0.00875251 0.000252306 0
0.00835177 1.12218e-05 0
0.00869569 0.000222256 0
0.00836046 8.48999e-06 0
0.00848089 9.95413e-05 0
0.00836911 5.71073e-06 0
0.00875384 0.000236813 0
0.00838163 1.53369e-06 0
0.00844301 4.70608e-05 0
0.00859694 0.000147422 0
0.00855394 0.000117903 0
0.00875532 0.000221046 0
0.00839404 -2.75448e-06 0
0.00864366 0.000159503 0
0.00882364 0.000240393 0
0.00820384 -0.000214645 0
0.00841181 -9.16173e-06 0
0.00852824 7.81022e-05 0
0.00882413 0.000229713 0
0.00829082 -0.000134737 0
0.00875764 0.000198571 0
0.00797376 -0.000477615 0
0.00842932 -1.57863e-05 0
0.00778016 -0.000596867 0
0.0087055 0.000158261 0
0.00882495 0.000214189 0
0.0087602 0.000175616 0
0.00865351 0.000113945 0
0.00845378 -2.5587e-05 0
0.00851162 1.74481e-05 0
0.00857297 5.53675e-05 0
0.00882634 0.000191614 0
0.00840461 -9.29711e-05 0
0.00847769 -3.579e-05 0
0.00812198 -0.000401489 0
0.00876412 0.000143344 0
0.00842021 -9.89504e-05 0
0.00760426 -0.000731949 0
0.00882871 0.000158899 0
0.00851022 -5.07214e-05 0
0.00844292 -0.000108101 0
0.00888618 0.000179474 0
0.00825855 -0.000303021 0
0.00866734 5.19479e-05 0
0.00862945 2.28742e-05 0
0.00876841 0.000110318 0
0.00888641 0.000173711 0
0.00888664 0.000167944 0
0.00872123 6.71919e-05 0
0.00888699 0.000159688 0
0.00847508 -0.000122024 0
0.00854168 -6.63544e-05 0
0.00859797 -2.78305e-05 0
0.00888737 0.000151399 0
0.0088327 0.000111806 0
0.00802919 -0.000568129 0
0 0 0
0.00888794 0.000139535 0
0.00877473 6.4644e-05 0
0.00888856 0.000127584 0
0.00868166 -1.14871e-05 0
0.00845258 -0.000199188 0
0.00492669 -0.000796617 0
0.00858317 -8.89278e-05 0
0.00851934 -0.000143124 0
0.00845978 -0.000202391 0
0.00888951 0.000110578 0
0.00846694 -0.000205634 0
0.0084774 -0.000210481 0
0.00889055 9.33877e-05 0
0.00878151 1.78951e-05 0
0.00848777 -0.000215408 0
0.0083078 -0.000393338 0
0.00883928 4.46931e-05 0
0.00862266 -0.000112649 0
0.00850263 -0.000222694 0
0.00889212 6.91567e-05 0
0.00857814 -0.000174951 0
0.00851731 -0.000230142 0
0.00895039 9.72218e-05 0
0.00840157 -0.000349387 0
0.00874464 -5.95387e-05 0
0.00870067 -9.58772e-05 0
0.00889382 4.45844e-05 0
0.00895083 8.45828e-05 0
0.00853787 -0.000241031 0
0.00879105 -4.54855e-05 0
0.00821029 -0.000561199 0
0.00895151 6.67042e-05 0
0.00867287 -0.00014635 0
0.00807798 -0.000661647 0
0.00855803 -0.000252235 0
0.00889637 1.03719e-05 0
0.0076705 -0.000853784 0
0.00895255 4.12902e-05 0
0.00850654 -0.000334284 0
0.00884967 -4.95925e-05 0
0.00858554 -0.000268431 0
0.00889911 -2.44048e-05 0
0.00851944 -0.000341168 0
0.00865295 -0.000222615 0
0.00880098 -0.000110206 0
0.00650754 -0.000988547 0
0.00836029 -0.000504672 0
0.00871959 -0.00018182 0
0.00895421 5.19773e-06 0
0.00853823 -0.000351563 0
0.00861225 -0.000285202 0
0.00890309 -7.21065e-05 0
0.00856492 -0.000367131 0
0.00899971 1.01072e-05 0
0.00790263 -0.000831513 0
0.00899991 3.1841e-06 0
0.00864763 -0.000309162 0
0.00895681 -4.57927e-05 0
0.00900011 -3.7213e-06 0
0.0090004 -1.33471e-05 0
0.0081226 -0.000760169 0
0.00881416 -0.000196052 0
0.0090007 -2.29733e-05 0
0.0087763 -0.000231282 0
0.00890732 -0.000120638 0
0.00860175 -0.000390295 0
0.00900113 -3.64695e-05 0
0.00868146 -0.00033411 0
0.00886497 -0.000179548 0
0.00900158 -5.00015e-05 0
0.00874298 -0.000293229 0
0.00855349 -0.000470882 0
0.00855938 -0.000474517 0
0.00900224 -6.89439e-05 0
0.00896085 -0.000117198 0
0.00840573 -0.000617521 0
0.00856525 -0.00047818 0
0.00857383 -0.000483634 0
0.00900292 -8.79859e-05 0
0.00891319 -0.000186035 0
0.00865091 -0.000424563 0
0.00858233 -0.00048915 0
0.00872464 -0.000369274 0
0.00882729 -0.000283323 0
0.00859454 -0.000497256 0
0.00828849 -0.000745472 0
0.00900392 -0.000114466 0
0.00772494 -0.000978224 0
0.00860659 -0.00050549 0
0.00900496 -0.00014115 0
0.0086235 -0.00051744 0
0.00850499 -0.000622197 0
0.00273803 -0.000519165 0
0.00891923 -0.000252509 0
0.00816054 -0.000860475 0
0.00876501 -0.000406039 0
0.00904182 -0.000105348 0
0.00896689 -0.000215956 0
0.00864009 -0.00052964 0
0.00900644 -0.000177878 0
0.00871379 -0.000474954 0
0.00904222 -0.000120729 0
0.00496733 -0.000866545 0
0.00866276 -0.000547133 0
0.00904277 -0.000141756 0
0.00888545 -0.000354451 0
0.00900798 -0.000214965 0
0.00884349 -0.000396292 0
0.00904354 -0.000170832 0
0.00845169 -0.000754549 0
0.0086848 -0.000565097 0
0.00860212 -0.000639839 0
0.00892713 -0.000340269 0
0.0088142 -0.00045705 0
0.0086126 -0.000647539 0
0.00901012 -0.000265337 0
0.00904462 -0.00021118 0
0.00862785 -0.000659083 0
0.00871403 -0.000590546 0
0.00897534 -0.000350312 0
0.0087899 -0.000548474 0
0.0086495 -0.000676211 0
0.00819388 -0.000966386 0
0.00901228 -0.000316261 0
0.00874202 -0.000616834 0
0.00893483 -0.000429211 0
0.00904613 -0.000267037 0
0.00885857 -0.000510507 0
0.00776952 -0.00110567 0
0.00906516 -0.000227681 0
0.0086794 -0.000701396 0
0.00906534 -0.000236238 0
0.00906552 -0.00024476 0
0.00906575 -0.000256222 0
0.00901515 -0.000384327 0
0.00798797 -0.00107844 0
0.00835309 -0.000957456 0
0.00877782 -0.000653607 0
0.00906599 -0.000267659 0
0.0084886 -0.00089261 0
0.00904818 -0.00034383 0
0.0090663 -0.000283252 0
0.00871931 -0.000738146 0
0.00906661 -0.000298838 0
0.00864079 -0.000809584 0
0.00864552 -0.00081361 0
0.00865022 -0.000817658 0
0.00894405 -0.000543987 0
0.00890924 -0.000583366 0
0.00906703 -0.000320188 0
0.00901792 -0.000453131 0
0.00881132 -0.000691794 0
0.0086571 -0.000823669 0
0.00866392 -0.000829729 0
0.00906743 -0.000341566 0
0.00822054 -0.00107321 0
0.00887524 -0.000654588 0
0.00898583 -0.000529324 0
0.0086737 -0.000838601 0
0.00906796 -0.000370786 0
0.00868336 -0.000847574 0
0.00905077 -0.00044827 0
0.00877036 -0.000791401 0
0.00869689 -0.000860534 0
0.00906846 -0.000400093 0
0.00885215 -0.000744464 0
0.00858736 -0.000958195 0
0.00902128 -0.000543388 0
0.00871016 -0.000873695 0
0 0 0
0.0089522 -0.000659779 0
0.0090691 -0.000439866 0
0.00872829 -0.000892457 0
0.00780192 -0.00123501 0
0.00906972 -0.000386591 0
0.00656985 -0.00120655 0
0.00906967 -0.000479813 0
0.00852176 -0.00105749 0
0.00874589 -0.000911605 0
0.00907008 -0.000405909 0
0.00888895 -0.000799379 0
0.00498933 -0.000942424 0
0.0090242 -0.000634463 0
0.00907052 -0.000431242 0
0.00824195 -0.00118643 0
0.00883211 -0.000868016 0
0.00905359 -0.000588256 0
0.00876921 -0.000938555 0
0.00907033 -0.000533431 0
0.00867471 -0.00101395 0
0.00907104 -0.000465095 0
0.00868302 -0.00102237 0
0.00869509 -0.00103495 0
0.0087915 -0.000966208 0
0.00896043 -0.000805562 0
0.00907085 -0.000587332 0
0.00899626 -0.000761931 0
0.00907163 -0.000510775 0
0.00839873 -0.00120069 0
0.0087122 -0.0010535 0
0.00893082 -0.000873918 0
0.0090271 -0.000751427 0
0.00881995 -0.00100463 0
0.00907222 -0.000572551 0
0.00907128 -0.000658659 0
0.00873576 -0.00108056 0
0.00890104 -0.000977267 0
0.00825678 -0.00130012 0
0.00803561 -0.00133384 0
0.0085434 -0.00122275 0
0.0090556 -0.000772443 0
0.00884649 -0.00104428 0
0.00782385 -0.00136637 0
0.00905129 -0.000555052 0
0.0087671 -0.00111966 0
0.00907138 -0.000730362 0
0.00905145 -0.000565976 0
0.00907262 -0.000655773 0
0.00896604 -0.00095182 0
0.00905161 -0.000576853 0
0.00902883 -0.000869049 0
0.00905179 -0.000590849 0
0.00905196 -0.000604799 0
0.00905216 -0.000623141 0
0.00869508 -0.00121802 0
0.00887869 -0.00109862 0
0.00869877 -0.00122238 0
0.00870244 -0.00122677 0
0.00905233 -0.000641444 0
0.00870781 -0.00123327 0
0.00880697 -0.00117567 0
0.00907099 -0.000823646 0
0.00871313 -0.0012398 0
0.00905252 -0.0006658 0
0.00872076 -0.00124935 0
0.0090724 -0.000766927 0
0.00905266 -0.000690128 0
0.00872827 -0.00125898 0
0.00873879 -0.00127284 0
0.00826537 -0.00142112 0
0.0089075 -0.00115495 0
0.00905277 -0.00072263 0
0.00900153 -0.00105567 0
0.00902905 -0.00101661 0
0.00874908 -0.00128686 0
0.0090699 -0.000917308 0
0.0090528 -0.000755123 0
0.00896878 -0.00113125 0
0.00862996 -0.00135965 0
0.00876309 -0.00130677 0
0.00905423 -0.00100938 0
0.00885477 -0.00125528 0
0.00905272 -0.000798421 0
0.00855558 -0.0014164 0
0.00877666 -0.00132699 0
0.00783386 -0.0014989 0
0.00907068 -0.000913503 0
0.00499424 -0.00101678 0
0.00905247 -0.000841735 0
0.00893988 -0.00123104 0
0.00841795 -0.00147841 0
0.00879455 -0.00135531 0
0.00906744 -0.00103679 0
0.00900043 -0.000769411 0
0.00902678 -0.0011643 0
0.00905191 -0.000899012 0
0.00900075 -0.000794451 0
0.00881158 -0.00138421 0
0.00826718 -0.00154228 0
0.00900107 -0.000825771 0
0.00870255 -0.00145715 0
0.00870898 -0.00146619 0
0.00905106 -0.000956328 0
0.00896656 -0.00131018 0
0.00890726 -0.00136746 0
0.00900135 -0.000865935 0
0.00871829 -0.00147963 0
0.00883316 -0.00142414 0
0.00906362 -0.00115644 0
0.00873144 -0.00149937 0
0.00804685 -0.00159496 0
0.00906577 -0.00110359 0
0.00900147 -0.000918296 0
0.00904953 -0.00103124 0
0.00885312 -0.0014651 0
0.00874945 -0.00152801 0
0.0065736 -0.00143484 0
0.00902027 -0.00134499 0
0.00855344 -0.0016095 0
0.00900123 -0.000987108 0
0.00904451 -0.00130627 0
0.00783359 -0.00163263 0
0.00904749 -0.00110618 0
0.00899243 -0.00141528 0
0.00877322 -0.00156909 0
0.00887704 -0.00152091 0
0.00826163 -0.00167167 0
0.0090568 -0.00130575 0
0.00900021 -0.00107761 0
0 0 0
0.0090441 -0.00120265 0
0.00895687 -0.00152388 0
0.00892291 -0.000996527 0
0.00880313 -0.00162743 0
0.00889809 -0.00157844 0
0.00892306 -0.00101087 0
0.00892318 -0.00102517 0
0.0027402 -0.000587775 0
0.00869267 -0.00169431 0
0.0089233 -0.00104267 0
0.00905465 -0.00134508 0
0.00869548 -0.00169895 0
0.00869828 -0.0017036 0
0.00892339 -0.00106012 0
0.00900932 -0.0015248 0
0.00870237 -0.00171049 0
0.00899767 -0.00119602 0
0.00903981 -0.00129905 0
0.00892346 -0.00108207 0
0.00870642 -0.0017174 0
0.00904754 -0.00145467 0
0.00871222 -0.00172748 0
0.00892347 -0.00110397 0
0.00871793 -0.00173763 0
0.00892112 -0.00165571 0
0.00892343 -0.00113205 0
0.00883832 -0.00170951 0
0.00872588 -0.00175221 0
0.00840134 -0.00179275 0
0.00497919 -0.00109863 0
0.0089233 -0.00116006 0
0.00824894 -0.00180088 0
0.00873363 -0.00176691 0
0.00782221 -0.00176698 0
0.00892301 -0.00119638 0
0.00874415 -0.00178772 0
0.00903308 -0.00142095 0
0.00853521 -0.0018309 0
0.00861065 -0.00182435 0
0.00892259 -0.00123261 0
0.00875426 -0.00180878 0
0.00899233 -0.00134934 0
0.00893928 -0.00173567 0
0.00892185 -0.00127975 0
0.00901815 -0.00166746 0
0.00876751 -0.00183816 0
0.00903268 -0.00163609 0
0.0080231 -0.00186011 0
0.00887564 -0.00182389 0
0.00898998 -0.00173904 0
0.00892088 -0.00132677 0
0.00878 -0.00186802 0
0.00902483 -0.00154246 0
0.00903232 -0.0016445 0
0.0089193 -0.00138775 0
0.00879564 -0.00190907 0
0.00895539 -0.00184132 0
0.00822746 -0.00193913 0
0.00879897 -0.00127899 0
0.00898207 -0.00154497 0
0.00866111 -0.00196448 0
0.00891732 -0.00144858 0
0.00879926 -0.00131217 0
0.00866602 -0.00197396 0
0.00880989 -0.00195098 0
0.00867309 -0.00198803 0
0.00780108 -0.00190186 0
0.00879946 -0.00135168 0
0.00901241 -0.00169299 0
0.00901378 -0.0018161 0
0.00868301 -0.00200863 0
0.00891423 -0.00152682 0
0.00879946 -0.00140005 0
0.00882658 -0.00200778 0
0.00890822 -0.00198166 0
0.0086965 -0.0020384 0
0.00850001 -0.00205029 0
0.00896371 -0.00195093 0
0.0087991 -0.00146058 0
0.00891051 -0.00160479 0
0.00871411 -0.00208087 0
0.0088408 -0.00206602 0
0.00899755 -0.00184252 0
0.00879806 -0.00153739 0
0.0081985 -0.00207677 0
0.00896354 -0.00178996 0
0.00890486 -0.00170386 0
0.00873587 -0.00214077 0
0.00494639 -0.0011752 0
0.00651812 -0.00167068 0
0.00898559 -0.00202981 0
0.00885555 -0.00214381 0
0.00833813 -0.00214379 0
0.00879579 -0.00163549 0
0.00899125 -0.00200561 0
0.00896334 -0.00209309 0
0.00776985 -0.00203653 0
0.00889819 -0.00180244 0
0.00876072 -0.00222433 0
0.00897601 -0.00202357 0
0.00860897 -0.00223009 0
0.00864659 -0.00157718 0
0.0086111 -0.00223491 0
0.00861321 -0.00223974 0
0.00886611 -0.00222387 0
0.00796604 -0.00212767 0
0.00864672 -0.0015963 0
0.00892374 -0.00219648 0
0.00861631 -0.00224688 0
0.00879136 -0.00176071 0
0.00861937 -0.00225405 0
0.00864681 -0.00161536 0
0.00862376 -0.00226448 0
0.00864684 -0.00163757 0
0.00862806 -0.00227497 0
0.00888837 -0.00192573 0
0.00864683 -0.00165971 0
0.00863404 -0.00229 0
0.00864674 -0.00168627 0
0.00863983 -0.00230513 0
0.00815896 -0.00222397 0
0.00864657 -0.00171276 0
0.00844209 -0.00229566 0
0.00895131 -0.00224061 0
0.00864765 -0.00232649 0
0.00893179 -0.00208993 0
0.00864626 -0.00174528 0
0.00878556 -0.00233967 0
0.0086551 -0.00234806 0
0.00887348 -0.00232911 0
0.00878329 -0.00191948 0
0.00864583 -0.00177771 0
0.00887696 -0.00204812 0
0.00895075 -0.00220259 0
0.00850724 -0.0023437 0
0 0 0