# vtk DataFile Version 3.0
File generated from DClib
ASCII

DATASET UNSTRUCTURED_GRID
POINTS 1909 float
50 0 0 
48.75 0 0 
50 1.66667 0 
47.5 0 0 
50 3.33333 0 
46.25 0 0 
50 5 0 
45 0 0 
43.75 0 0 
50 6.66667 0 
43 2 0 
42.5 0 0 
50 8.33333 0 
43 4.66667 0 
41.25 0 0 
41.075 2 0 
50 10 0 
40 0 0 
43 7.33333 0 
39.15 2 0 
38.75 0 0 
43 10 0 
37.5 0 0 
37.225 2 0 
36.25 0 0 
36 4 0 
35.3 2 0 
36 5 0 
35 0 0 
35.325 4 0 
36 6 0 
36 7 0 
34.65 4 0 
36 8 0 
33.75 0 0 
33.975 4 0 
36 9 0 
33.375 2 0 
33.3 4 0 
36 10 0 
32.5 0 0 
32.625 4 0 
33 6 0 
31.95 4 0 
33 7.45455 0 
31.45 2 0 
31.25 0 0 
31.95 6 0 
33 8.79545 0 
31.275 4 0 
33 10 0 
30.6 4 0 
30 0 0 
30.9 6 0 
29.925 4 0 
29.525 2 0 
29.85 6 0 
29.25 4 0 
28.75 0 0 
30 8 0 
30 8.45455 0 
28.575 4 0 
29.625 8 0 
30 8.90909 0 
28.8 6 0 
30 9.25 0 
29.782 8.90909 0 
30 9.59091 0 
29.9487 9.59091 0 
29.25 8 0 
29.7462 9.25 0 
30 9.79545 0 
29.897 9.59091 0 
29.564 8.90909 0 
29.9547 9.79545 0 
29.3462 8.45455 0 
29.84 9.59091 0 
30 10 0 
29.8975 9.79545 0 
29.9882 10 0 
29.9902 10.0098 0 
29.7827 9.59091 0 
29.9765 10 0 
29.9804 10.0196 0 
29.9667 10.0098 0 
29.9591 10 0 
29.9686 10.0196 0 
29.9659 10.0341 0 
29.9569 10.0196 0 
29.9418 10 0 
29.9395 10.0196 0 
29.9515 10.0485 0 
29.932 10.0098 0 
29.9424 10.0341 0 
29.8241 9.79545 0 
29.7181 9.59091 0 
29.9166 10 0 
29.9397 10.0485 0 
29.9222 10.0196 0 
29.9279 10.0485 0 
29.9305 10.0695 0 
29.8914 10 0 
29.9077 10.0341 0 
27.9 4 0 
29.897 10.0196 0 
29.9106 10.0485 0 
29.8817 10.0098 0 
29.907 10.0695 0 
29.8933 10.0485 0 
29.9095 10.0905 0 
29.8719 10.0196 0 
27.6 2 0 
29.8556 10 0 
29.8978 10.0905 0 
29.6531 9.59091 0 
29.3437 8.90909 0 
27.5 0 0 
29.8681 10.0485 0 
29.886 10.0905 0 
29.8574 10.0341 0 
29.4839 9.25 0 
29.8723 10.0695 0 
29.7289 9.79545 0 
29.836 10.0196 0 
29.8687 10.0905 0 
29.8197 10 0 
29.8797 10.1203 0 
29.843 10.0485 0 
29.8513 10.0905 0 
29.81 10.0098 0 
29.8561 10.1203 0 
29.8002 10.0196 0 
29.8221 10.0695 0 
29.8072 10.0485 0 
29.8262 10.0905 0 
29.5782 9.59091 0 
29.8498 10.1502 0 
29.7695 10 0 
29.7858 10.0341 0 
29.838 10.1502 0 
29.8215 10.1203 0 
29.8011 10.0905 0 
29.8262 10.1502 0 
29.7714 10.0485 0 
28.875 8 0 
29.75 10.0196 0 
29.8089 10.1502 0 
29.7654 10.0905 0 
29.7193 10 0 
29.7916 10.1502 0 
29.7505 10.0695 0 
29.8079 10.1921 0 
29.7713 10.1203 0 
29.7096 10.0098 0 
29.6047 9.79545 0 
29.503 9.59091 0 
29.7213 10.0485 0 
29.7665 10.1502 0 
29.6999 10.0196 0 
29.7844 10.1921 0 
29.7296 10.0905 0 
29.6856 10.0341 0 
29.7414 10.1502 0 
29.7497 10.1921 0 
29.6503 10 0 
29.7661 10.2339 0 
29.6712 10.0485 0 
29.6999 10.1203 0 
29.7543 10.2339 0 
29.6796 10.0905 0 
29.7057 10.1502 0 
29.7425 10.2339 0 
29.1235 8.90909 0 
29.6309 10.0196 0 
29.6504 10.0695 0 
29.4146 9.59091 0 
29.7252 10.2339 0 
29.6996 10.1921 0 
29.6701 10.1502 0 
29.7079 10.2339 0 
29.6296 10.0905 0 
29.5813 10 0 
29.6023 10.0485 0 
29.5716 10.0098 0 
29.6828 10.2339 0 
29.7086 10.2914 0 
29.2101 9.25 0 
29.562 10.0196 0 
29.6201 10.1502 0 
29.6578 10.2339 0 
29.4428 9.79545 0 
29.5999 10.1203 0 
29.6849 10.2914 0 
29.6283 10.1921 0 
29.5477 10.0341 0 
29.3259 9.59091 0 
29.5608 10.0905 0 
29.5335 10.0485 0 
29.6221 10.2339 0 
29.6503 10.2914 0 
29.5702 10.1502 0 
29.4881 10 0 
29.5128 10.0695 0 
29.6511 10.3489 0 
29.5866 10.2339 0 
29.6392 10.3489 0 
29.4689 10.0196 0 
29.6002 10.2914 0 
29.6273 10.3489 0 
29.4921 10.0905 0 
29.61 10.3489 0 
29.5286 10.1921 0 
29.5016 10.1502 0 
29.5368 10.2339 0 
29.5926 10.3489 0 
29.4405 10.0485 0 
29.2199 9.59091 0 
29.4626 10.1203 0 
29.3949 10 0 
28.9 8.90909 0 
29.5676 10.3489 0 
29.5291 10.2914 0 
29.3853 10.0098 0 
28.6923 8.45455 0 
29.487 10.2339 0 
29.5426 10.3489 0 
29.3758 10.0196 0 
29.5734 10.4266 0 
29.4331 10.1502 0 
29.3993 10.0905 0 
28.5 8 0 
29.3617 10.0341 0 
29.5496 10.4266 0 
29.5071 10.3489 0 
29.2327 9.79545 0 
29.3475 10.0485 0 
29.1136 9.59091 0 
29.4187 10.2339 0 
29.5148 10.4266 0 
29.4716 10.3489 0 
29.3918 10.1921 0 
29.3271 10.0695 0 
29.4298 10.2914 0 
29.2714 10 0 
29.3406 10.1502 0 
28.9208 9.25 0 
29.3066 10.0905 0 
29.4648 10.4266 0 
29.422 10.3489 0 
29.4958 10.5042 0 
29.2524 10.0196 0 
27.75 6 0 
29.3504 10.2339 0 
29.4837 10.5042 0 
29.4718 10.5042 0 
29.2774 10.1203 0 
29.4543 10.5042 0 
29.3724 10.3489 0 
29.2244 10.0485 0 
29.4369 10.5042 0 
29.3938 10.4266 0 
28.9853 9.59091 0 
29.2481 10.1502 0 
28.6766 8.90909 0 
29.4119 10.5042 0 
29.2934 10.2914 0 
27.225 4 0 
29.148 10 0 
29.2582 10.2339 0 
29.1837 10.0905 0 
29.3869 10.5042 0 
29.1385 10.0098 0 
29.3044 10.3489 0 
29.1291 10.0196 0 
29.2072 10.1921 0 
29.3514 10.5042 0 
29.1152 10.0341 0 
29.3929 10.6071 0 
29.2949 10.4266 0 
29.1013 10.0485 0 
29.3686 10.6071 0 
29.316 10.5042 0 
29.2364 10.3489 0 
28.9623 9.79545 0 
29.1257 10.1502 0 
29.1662 10.2339 0 
29.0811 10.0695 0 
28.8566 9.59091 0 
29.3336 10.6071 0 
29.2666 10.5042 0 
29.0609 10.0905 0 
28.9875 10 0 
29.2835 10.6071 0 
29.1448 10.3489 0 
29.0321 10.1203 0 
29.2173 10.5042 0 
29.1098 10.2914 0 
28.125 8 0 
28.9688 10.0196 0 
29.1594 10.4266 0 
28.611 9.25 0 
29.29 10.71 0 
28.4486 8.90909 0 
29.0443 10.2339 0 
29.0033 10.1502 0 
29.2777 10.71 0 
28.9413 10.0485 0 
29.2128 10.6071 0 
29.2655 10.71 0 
29.1497 10.5042 0 
29.2478 10.71 0 
28.7003 9.59091 0 
29.0533 10.3489 0 
29.2303 10.71 0 
28.9629 10.1921 0 
28.9013 10.0905 0 
29.2051 10.71 0 
29.0822 10.5042 0 
29.1801 10.71 0 
28.827 10 0 
29.1144 10.6071 0 
28.8177 10.0098 0 
28.9225 10.2339 0 
28.8085 10.0196 0 
29.1447 10.71 0 
28.7949 10.0341 0 
28.8443 10.1502 0 
28.977 10.4266 0 
28.9322 10.3489 0 
29.1094 10.71 0 
28.7813 10.0485 0 
28.9912 10.5042 0 
29.1562 10.8438 0 
28.5436 9.59091 0 
28.7615 10.0695 0 
28.8669 10.2914 0 
29.1313 10.8438 0 
28.6184 9.79545 0 
29.0602 10.71 0 
28.2207 8.90909 0 
28.7418 10.0905 0 
28.0378 8.45455 0 
28.9798 10.6071 0 
29.0958 10.8438 0 
29.0112 10.71 0 
28.9005 10.5042 0 
28.7136 10.1203 0 
28.7644 10.2339 0 
28.8113 10.3489 0 
29.0454 10.8438 0 
28.6223 10 0 
28.6854 10.1502 0 
28.2746 9.25 0 
28.9441 10.71 0 
28.6042 10.0196 0 
27.75 8 0 
28.9747 10.8438 0 
28.6459 10.1921 0 
28.5773 10.0485 0 
29.0225 10.9775 0 
28.3532 9.59091 0 
28.7804 10.5042 0 
28.736 10.4266 0 
28.8772 10.71 0 
29.0097 10.9775 0 
28.9971 10.9775 0 
28.799 10.6071 0 
28.9791 10.9775 0 
28.5384 10.0905 0 
28.6064 10.2339 0 
28.6543 10.3489 0 
28.9611 10.9775 0 
28.8769 10.8438 0 
27.9867 8.90909 0 
26.25 0 0 
28.9358 10.9775 0 
28.7871 10.71 0 
28.9106 10.9775 0 
28.6607 10.5042 0 
28.4177 10 0 
26.55 4 0 
28.552 10.2914 0 
28.483 10.1502 0 
28.4087 10.0098 0 
28.8751 10.9775 0 
28.3998 10.0196 0 
28.3866 10.0341 0 
28.8399 10.9775 0 
28.6974 10.71 0 
28.3735 10.0485 0 
28.1625 9.59091 0 
28.7436 10.8438 0 
28.4976 10.3489 0 
28.3543 10.0695 0 
28.791 10.9775 0 
28.4052 10.2339 0 
28.3352 10.0905 0 
28.8519 11.1481 0 
28.1869 9.79545 0 
28.5607 10.6071 0 
28.5053 10.5042 0 
28.7423 10.9775 0 
28.8258 11.1481 0 
28.308 10.1203 0 
28.5787 10.71 0 
27.904 9.25 0 
28.7893 11.1481 0 
28.424 10.4266 0 
27.7528 8.90909 0 
28.2807 10.1502 0 
28.6758 10.9775 0 
27.375 8 0 
28.7383 11.1481 0 
28.1619 10 0 
28.5649 10.8438 0 
28.2425 10.1921 0 
28.6096 10.9775 0 
28.1444 10.0196 0 
28.298 10.3489 0 
28.4605 10.71 0 
26.7 6 0 
27.9315 9.59091 0 
28.3503 10.5042 0 
28.6676 11.1481 0 
28.1187 10.0485 0 
28.2042 10.2339 0 
28.5207 10.9775 0 
28.0813 10.0905 0 
28.6814 11.3186 0 
27.3818 8.45455 0 
28.6679 11.3186 0 
28.1516 10.2914 0 
28.5703 11.1481 0 
28.6544 11.3186 0 
28.6358 11.3186 0 
27.5109 8.90909 0 
28.3072 10.71 0 
28.6173 11.3186 0 
28.2524 10.6071 0 
28.4322 10.9775 0 
28.028 10.1502 0 
28.5915 11.3186 0 
28.0989 10.3489 0 
28.33 10.8438 0 
28.5658 11.3186 0 
28.153 10.5042 0 
27.9061 10 0 
27.8975 10.0098 0 
28.5303 11.3186 0 
28.4384 11.1481 0 
27.7002 9.59091 0 
27.889 10.0196 0 
27.8765 10.0341 0 
28.4949 11.3186 0 
28.3154 10.9775 0 
27.9532 10.2339 0 
27.8639 10.0485 0 
28.0276 10.4266 0 
28.1544 10.71 0 
27.8457 10.0695 0 
27.4909 9.25 0 
28.4463 11.3186 0 
27 8 0 
27.8275 10.0905 0 
28.3979 11.3186 0 
27.8015 10.1203 0 
27.6542 9.79545 0 
25.675 2 0 
28.1991 10.9775 0 
27.2691 8.90909 0 
27.9563 10.5042 0 
28.4682 11.5318 0 
28.2625 11.1481 0 
27.7755 10.1502 0 
28.3322 11.3186 0 
27.8502 10.3489 0 
28.4401 11.5318 0 
25.875 4 0 
27.7391 10.1921 0 
28.4019 11.5318 0 
28.0268 10.8438 0 
28.2668 11.3186 0 
27.9602 10.71 0 
28.3498 11.5318 0 
27.4223 9.59091 0 
27.7026 10.2339 0 
27.5927 10 0 
28.0486 10.9775 0 
27.8616 10.6071 0 
27.5762 10.0196 0 
28.1794 11.3186 0 
28.2786 11.5318 0 
27.5519 10.0485 0 
27.6524 10.2914 0 
28.0319 11.1481 0 
27.7108 10.5042 0 
27.5167 10.0905 0 
27.0169 8.90909 0 
28.0924 11.3186 0 
27.6021 10.3489 0 
27.8988 10.9775 0 
28.1818 11.5318 0 
27.7667 10.71 0 
26.625 8 0 
28.255 11.745 0 
27.4664 10.1502 0 
28.2402 11.745 0 
28.2256 11.745 0 
28.2059 11.745 0 
27.978 11.3186 0 
26.7234 8.45455 0 
27.0259 9.25 0 
27.5342 10.4266 0 
28.1863 11.745 0 
27.1442 9.59091 0 
28.0516 11.5318 0 
28.1598 11.745 0 
27.3959 10.2339 0 
28.1334 11.745 0 
27.2793 10 0 
27.2714 10.0098 0 
27.2635 10.0196 0 
27.7086 10.9775 0 
27.6431 10.8438 0 
28.0975 11.745 0 
27.8643 11.3186 0 
27.4661 10.5042 0 
27.2518 10.0341 0 
27.2401 10.0485 0 
28.0617 11.745 0 
26.7648 8.90909 0 
27.5255 10.71 0 
27.7353 11.1481 0 
27.2231 10.0695 0 
28.0133 11.745 0 
27.2061 10.0905 0 
27.8791 11.5318 0 
27.2986 10.3489 0 
27.1818 10.1203 0 
27.9651 11.745 0 
27.3758 10.6071 0 
27.0077 9.79545 0 
27.7174 11.3186 0 
27.1576 10.1502 0 
25 0 0 
27.5193 10.9775 0 
27.9003 11.745 0 
27.1236 10.1921 0 
26.25 8 0 
27.9939 12.0061 0 
25.65 6 0 
27.8359 11.745 0 
26.8136 9.59091 0 
27.0896 10.2339 0 
27.9626 12.0061 0 
27.2853 10.71 0 
25.2 4 0 
27.5713 11.3186 0 
27.9218 12.0061 0 
26.4998 8.90909 0 
27.167 10.5042 0 
27.6541 11.5318 0 
27.0427 10.2914 0 
27.7503 11.745 0 
26.9033 10 0 
27.8677 12.0061 0 
26.8882 10.0196 0 
26.8659 10.0485 0 
26.9958 10.3489 0 
27.2836 10.9775 0 
27.6652 11.745 0 
27.3609 11.1481 0 
27.7955 12.0061 0 
26.499 9.25 0 
[...]
POINT_DATA 1909
SCALARS phi float 1
LOOKUP_TABLE default
VECTORS Displacement float
0 0 0
0 0 0
0 -0.0140803 0
0 0 0
0 -0.0254536 0
0 0 0
0 -0.034028 0
0 0 0
0 0 0
0 -0.0399915 0
0.00245076 -0.0164738 0
0 0 0
0 -0.0432932 0
0.00459544 -0.0323414 0
0 0 0
0.00340119 -0.0166799 0
0 -0.0440219 0
0 0 0
0.00573878 -0.0411759 0
0.00450303 -0.0169548 0
0 0 0
0.00608371 -0.0433478 0
0 0 0
0.00577451 -0.0173943 0
0 0 0
0.0108331 -0.0309975 0
0.00719357 -0.0180752 0
0.0123661 -0.0356073 0
0 0 0
0.011732 -0.0313698 0
0.0133333 -0.0392276 0
0.0137341 -0.0418147 0
0.0126703 -0.0318149 0
0.0136547 -0.0435382 0
0 0 0
0.0136235 -0.0324011 0
0.0133512 -0.044347 0
0.00869561 -0.0190474 0
0.0146057 -0.0330826 0
0.0128687 -0.0444541 0
0 0 0
0.0155657 -0.0338856 0
0.0185242 -0.042907 0
0.0165335 -0.0347985 0
0.0189541 -0.0469499 0
0.0101821 -0.0203256 0
0 0 0
0.0203726 -0.0452831 0
0.0178257 -0.0484933 0
0.0174422 -0.0358102 0
0.015307 -0.0483268 0
0.0183299 -0.0369361 0
0 0 0
0.0220935 -0.0480357 0
0.019127 -0.0381314 0
0.0115515 -0.0218898 0
0.0236102 -0.0511354 0
0.0198713 -0.0394337 0
0 0 0
0.0246312 -0.0587054 0
0.024449 -0.0597852 0
0.0205067 -0.0407725 0
0.0252738 -0.0604064 0
0.0240309 -0.0605999 0
0.0248562 -0.0545082 0
0.0235219 -0.0610083 0
0.0244774 -0.0618859 0
0.0227416 -0.0612345 0
0.0228905 -0.0616404 0
0.0258452 -0.0621944 0
0.0240593 -0.0626906 0
0.0221714 -0.0611923 0
0.0230318 -0.0620418 0
0.0248796 -0.063173 0
0.0223173 -0.0616776 0
0.0255843 -0.0631954 0
0.0231698 -0.06248 0
0.0212034 -0.0610847 0
0.0224881 -0.0622185 0
0.0212896 -0.0612601 0
0.0221035 -0.0609585 0
0.0233041 -0.0629062 0
0.0213765 -0.0614159 0
0.022338 -0.0610675 0
0.0220247 -0.061341 0
0.0214981 -0.0616374 0
0.0223275 -0.0612518 0
0.0224067 -0.0612909 0
0.0223163 -0.0614247 0
0.0216173 -0.061841 0
0.0222885 -0.0616725 0
0.0224524 -0.0615086 0
0.0220306 -0.0618298 0
0.0224119 -0.0616278 0
0.0226988 -0.0628347 0
0.0234486 -0.0633693 0
0.0217779 -0.0621135 0
0.0224583 -0.0616704 0
0.0222781 -0.0618982 0
0.0224663 -0.0618237 0
0.0225142 -0.0618038 0
0.0219317 -0.0623635 0
0.0224231 -0.0620624 0
0.0210618 -0.0422009 0
0.0222843 -0.0621991 0
0.0224812 -0.0620349 0
0.022154 -0.0624024 0
0.0225334 -0.0620931 0
0.0224956 -0.062234 0
0.0225618 -0.0620817 0
0.02232 -0.0624713 0
0.0127317 -0.0237009 0
0.0221268 -0.0626918 0
0.0225738 -0.0622189 0
0.0235948 -0.0638209 0
0.025251 -0.0644763 0
0 0 0
0.0225247 -0.0625021 0
0.0225866 -0.0623508 0
0.0224659 -0.0626053 0
0.0245607 -0.0643761 0
0.0225711 -0.0624768 0
0.0229686 -0.0635481 0
0.0223961 -0.0628198 0
0.0226066 -0.0625362 0
0.0223095 -0.062994 0
0.0226214 -0.0624525 0
0.022556 -0.0627505 0
0.022629 -0.0627113 0
0.0224086 -0.0630604 0
0.0226496 -0.0626993 0
0.0224975 -0.0631328 0
0.0226404 -0.0629627 0
0.0226137 -0.0630752 0
0.0226641 -0.0629487 0
0.0237594 -0.0643271 0
0.0226726 -0.0628003 0
0.0225262 -0.0633844 0
0.0226018 -0.0632498 0
0.022688 -0.0629155 0
0.0226969 -0.0630292 0
0.0227034 -0.0631689 0
0.0227043 -0.0630254 0
0.0226827 -0.0633728 0
0.0263715 -0.0640112 0
0.0226501 -0.0635313 0
0.0227293 -0.0631805 0
0.022765 -0.0634616 0
0.022725 -0.0637565 0
0.0227556 -0.063327 0
0.0227671 -0.0635557 0
0.0227453 -0.0632466 0
0.0227763 -0.0634512 0
0.0227656 -0.0638314 0
0.0233121 -0.064411 0
0.0239264 -0.0648288 0
0.0227951 -0.063763 0
0.0227963 -0.0635283 0
0.0228064 -0.0639068 0
0.0227794 -0.0634447 0
0.0228318 -0.0637382 0
0.0228656 -0.0640189 0
0.0228387 -0.0637214 0
0.0228339 -0.063714 0
0.0229523 -0.0642499 0
0.0228134 -0.0636517 0
0.0229193 -0.0641331 0
0.0229049 -0.0639948 0
0.022832 -0.0637399 0
0.0229328 -0.0641106 0
0.0229024 -0.0639874 0
0.0228508 -0.0638268 0
0.0256009 -0.0657677 0
0.0230127 -0.0644009 0
0.0229834 -0.0643022 0
0.0241156 -0.0654105 0
0.0228788 -0.0639535 0
0.0229185 -0.0640847 0
0.022968 -0.0642487 0
0.0229072 -0.0640794 0
0.023038 -0.064474 0
0.0231561 -0.0647423 0
0.0230928 -0.06463 0
0.0231786 -0.0648189 0
0.0229487 -0.0642603 0
0.02291 -0.0641537 0
0.0250487 -0.0660918 0
0.0232004 -0.0648963 0
0.0230629 -0.0646101 0
0.0229907 -0.0644409 0
0.0237279 -0.0655093 0
0.0231032 -0.0647214 0
0.0229445 -0.0643223 0
0.0230452 -0.0646012 0
0.0232315 -0.0650116 0
0.0243036 -0.0659938 0
0.0231881 -0.064972 0
0.0232615 -0.0651282 0
0.0230512 -0.0646975 0
0.0229968 -0.0645698 0
0.0231597 -0.064971 0
0.0233968 -0.0654078 0
0.0233015 -0.0652988 0
0.0229853 -0.0646417 0
0.0231124 -0.0649543 0
0.0230016 -0.0647256 0
0.0234299 -0.0655647 0
0.0230748 -0.0649287 0
0.0230181 -0.0648099 0
0.0233389 -0.0654709 0
0.0230427 -0.0649336 0
0.0232282 -0.0653223 0
0.0232949 -0.065469 0
0.023199 -0.0653146 0
0.0230676 -0.0650577 0
0.0234759 -0.0657988 0
0.0245159 -0.0666883 0
0.023387 -0.0657184 0
0.0236156 -0.0660725 0
0.0259277 -0.0670795 0
0.0231041 -0.0652376 0
0.0231888 -0.0654424 0
0.0236287 -0.0661515 0
0.026478 -0.0667022 0
0.0232863 -0.0656762 0
0.023141 -0.065418 0
0.0236416 -0.0662308 0
0.023055 -0.0652974 0
0.0234302 -0.0659678 0
0.0235364 -0.066143 0
0.0268127 -0.0658859 0
0.0236599 -0.0663485 0
0.0230865 -0.0654687 0
0.0231942 -0.0656757 0
0.0242018 -0.066937 0
0.0236777 -0.0664667 0
0.0247213 -0.0673868 0
0.0234072 -0.0661752 0
0.0231333 -0.0657198 0
0.0232481 -0.0659342 0
0.023483 -0.0663198 0
0.0237022 -0.0666392 0
0.0233516 -0.0661665 0
0.0238823 -0.0669489 0
0.0236097 -0.0666411 0
0.0255244 -0.0678905 0
0.0237254 -0.0668128 0
0.0232023 -0.0660839 0
0.0233243 -0.0662973 0
0.0230945 -0.0659574 0
0.0239011 -0.0671098 0
0.0257941 -0.0580618 0
0.0235277 -0.0666751 0
0.0231098 -0.0660449 0
0.0231251 -0.0661322 0
0.023756 -0.0670621 0
0.0231476 -0.0662598 0
0.023401 -0.0666614 0
0.0239275 -0.0673486 0
0.0231701 -0.0663873 0
0.0233025 -0.0666043 0
0.0249547 -0.0682305 0
0.0237837 -0.0673134 0
0.0262349 -0.0683894 0
0.023203 -0.0665715 0
0.023577 -0.0671682 0
0.021502 -0.0436343 0
0.0241272 -0.0678254 0
0.0236885 -0.0673509 0
0.0239624 -0.0676984 0
0.023236 -0.0667558 0
0.0241343 -0.0679065 0
0.0235071 -0.0671636 0
0.0241414 -0.0679879 0
0.0238175 -0.0676682 0
0.0232834 -0.0670184 0
0.0241512 -0.0681083 0
0.0231084 -0.0668406 0
0.0234451 -0.0673363 0
0.0241606 -0.0682292 0
0.0231383 -0.0670204 0
0.0233311 -0.0672813 0
0.023613 -0.0676666 0
0.0247249 -0.0687816 0
0.0240044 -0.0682032 0
0.0238457 -0.0680265 0
0.0241733 -0.0684053 0
0.0251756 -0.0690789 0
0.0231818 -0.0672812 0
0.0233983 -0.0676498 0
0.0241852 -0.0685823 0
0.0244219 -0.068962 0
0.0232448 -0.0676563 0
0.0237548 -0.0683469 0
0.0242005 -0.068836 0
0.0234657 -0.0680188 0
0.0238751 -0.0685241 0
0.0272123 -0.0677581 0
0.0244303 -0.0691272 0
0.0236423 -0.068347 0
0.0259807 -0.0698176 0
0.0230861 -0.0677344 0
0.0265191 -0.0697289 0
0.024047 -0.0689215 0
0.0242138 -0.0690914 0
0.0231008 -0.0678272 0
0.0244416 -0.0693721 0
0.0233349 -0.068189 0
0.0231154 -0.0679196 0
0.0235586 -0.068527 0
0.0231366 -0.0680533 0
0.0254255 -0.07011 0
0.0238944 -0.0690272 0
0.0231578 -0.0681865 0
0.0242289 -0.0694517 0
0.0244556 -0.0697297 0
0.0231882 -0.0683776 0
0.0236513 -0.0690356 0
0.0232186 -0.0685684 0
0.0246913 -0.0700994 0
0.0234614 -0.0689344 0
0.0246937 -0.0701828 0
0.0242399 -0.069815 0
0.0246959 -0.0702663 0
0.0232617 -0.0688387 0
0.0246987 -0.0703899 0
0.0244698 -0.0702445 0
0.0239047 -0.0697141 0
0.0240746 -0.0699286 0
0.0233048 -0.0691088 0
0.0247013 -0.0705138 0
0.0237755 -0.0697227 0
0.0230103 -0.0689132 0
0.025658 -0.0711442 0
0.0247042 -0.0706942 0
0.0242481 -0.0703192 0
0.0230393 -0.0691058 0
0.0252864 -0.0711322 0
0.0233651 -0.0694858 0
0.0267801 -0.0710681 0
0.0247064 -0.0708752 0
0.0271802 -0.0702526 0
0.0236348 -0.0699597 0
0.0230808 -0.0693808 0
0.0234252 -0.0698626 0
0.023898 -0.0704095 0
0.0247082 -0.0711344 0
0.0244776 -0.070975 0
0.0242486 -0.0708285 0
0.0231397 -0.0697719 0
0.0250065 -0.0715458 0
0.0247084 -0.0713949 0
0.0264117 -0.0719113 0
0.0235075 -0.0703799 0
0.025006 -0.0717153 0
0.0275238 -0.0696567 0
0.0232224 -0.0703224 0
0.0247061 -0.0717619 0
0.0250044 -0.0719663 0
0.0228901 -0.0701104 0
0.0259167 -0.0724004 0
0.024057 -0.0713191 0
0.0242368 -0.0715235 0
0.0235892 -0.0708968 0
0.0229046 -0.0702109 0
0.022919 -0.0703109 0
0.0238648 -0.0713429 0
0.0229395 -0.0704531 0
0.025 -0.0723321 0
0.0247007 -0.0721314 0
0.0244647 -0.0719963 0
0.0229598 -0.0705946 0
0.0233367 -0.0710872 0
0.0270193 -0.0724414 0
0 0 0
0.0229885 -0.0707952 0
0.0236983 -0.0715937 0
0.0230171 -0.0709951 0
0.0242112 -0.0722265 0
0.0252899 -0.0729903 0
0.0218453 -0.0451338 0
0.0246878 -0.0726435 0
0.0249892 -0.0728575 0
0.0252881 -0.0730758 0
0.0230573 -0.0712759 0
0.0252861 -0.0731614 0
0.0252828 -0.0732879 0
0.0230971 -0.0715559 0
0.0238057 -0.0722892 0
0.0252793 -0.0734147 0
0.0261525 -0.0736561 0
0.0234911 -0.0721331 0
0.0246689 -0.0731599 0
0.0252735 -0.0735991 0
0.0231521 -0.0719444 0
0.0249645 -0.073601 0
0.0252671 -0.0737839 0
0.0226801 -0.0716637 0
0.0258629 -0.074073 0
0.0241568 -0.0731696 0
0.0244037 -0.0734033 0
0.0232067 -0.0723318 0
0.0227092 -0.0718749 0
0.0252569 -0.0740483 0
0.023945 -0.0732088 0
0.0268116 -0.0742102 0
0.0227496 -0.07217 0
0.0246333 -0.0738636 0
0.0272333 -0.0738116 0
0.0252454 -0.0743138 0
0.0232807 -0.0728613 0
0.0278035 -0.0715429 0
0.0228059 -0.0725828 0
0.0256082 -0.074787 0
0.0236937 -0.0735373 0
0.025227 -0.0746873 0
0.0233537 -0.0733891 0
0.0256 -0.0749601 0
0.0249117 -0.0746373 0
0.0240801 -0.0741251 0
0.0264165 -0.0617022 0
0.026407 -0.0751719 0
0.0245866 -0.0745746 0
0.0228834 -0.0731568 0
0.025587 -0.0752163 0
0.0252061 -0.0750628 0
0.0234505 -0.0740983 0
0.0255663 -0.0755892 0
0.0224159 -0.0732451 0
0.0277007 -0.0738086 0
0.0224307 -0.073357 0
0.025173 -0.0755823 0
0.0229885 -0.0739466 0
0.0224453 -0.0734681 0
0.0224655 -0.0736222 0
0.0274264 -0.0752218 0
0.0242491 -0.0753117 0
0.0224856 -0.0737754 0
0.0245076 -0.0755272 0
0.0235452 -0.0748047 0
0.025533 -0.0761238 0
0.0225134 -0.0739887 0
0.0251349 -0.0761055 0
0.0239493 -0.0753844 0
0.0225409 -0.0742009 0
0.0248049 -0.0760606 0
0.0258868 -0.0765747 0
0.0258812 -0.0766618 0
0.0225788 -0.0744952 0
0.0231281 -0.075018 0
0.0266329 -0.076681 0
0.0258754 -0.076749 0
0.0258667 -0.0768779 0
0.0226163 -0.0747881 0
0.0236674 -0.075736 0
0.0254782 -0.0768785 0
0.0258577 -0.0770069 0
0.0250752 -0.0768173 0
0.0244097 -0.0764911 0
0.0258441 -0.0771944 0
0.0271718 -0.0767547 0
0.0226675 -0.0751908 0
0.0280026 -0.0734277 0
0.0258299 -0.0773823 0
0.0227179 -0.0755915 0
0.0258088 -0.0776508 0
0.0264159 -0.0776698 0
0.0135822 -0.0256765 0
0.0237854 -0.0766622 0
0.0275936 -0.0766254 0
0.0250064 -0.0775353 0
0.0220172 -0.0752611 0
0.0233083 -0.0764471 0
0.0257866 -0.0779201 0
0.0227854 -0.0761354 0
0.025387 -0.0779275 0
0.0220473 -0.0754997 0
0.022076 -0.0466079 0
0.0257536 -0.0782986 0
0.0220879 -0.0758229 0
0.0242553 -0.07776 0
0.0228516 -0.0766764 0
0.0246018 -0.0779852 0
0.0221428 -0.0762647 0
0.0268657 -0.0784826 0
0.0257184 -0.0786786 0
0.0261811 -0.0787455 0
0.0239324 -0.0778587 0
0.0249008 -0.0784957 0
0.0261659 -0.0789212 0
0.0229384 -0.0773994 0
0.0222166 -0.0768685 0
0.0261427 -0.0791808 0
0.0256662 -0.0792038 0
0.0235324 -0.0783163 0
0.0252343 -0.0793635 0
0.0261074 -0.0795586 0
0.0277405 -0.0780773 0
0.0230227 -0.0781178 0
0.0256098 -0.0797318 0
0.0240717 -0.0790458 0
0.0223148 -0.0776883 0
0.0247792 -0.0794659 0
0.0281738 -0.075298 0
0.0215532 -0.0773166 0
0.0260536 -0.0800993 0
0.0215688 -0.0774451 0
0.0215843 -0.0775726 0
0.0216049 -0.0777435 0
0.0231304 -0.079061 0
0.0280512 -0.0773377 0
0.0274789 -0.0795848 0
0.0255267 -0.0804491 0
0.0216252 -0.0779131 0
0.0270605 -0.0802686 0
0.0224426 -0.0787888 0
0.0216526 -0.0781433 0
0.0259713 -0.0808611 0
0.0216797 -0.078372 0
0.0264252 -0.0808948 0
0.0264162 -0.0809829 0
0.0264071 -0.0810711 0
0.0242376 -0.0805465 0
0.0245976 -0.0807411 0
0.0217162 -0.0786832 0
0.0232337 -0.079997 0
0.0254358 -0.0811714 0
0.0263934 -0.0812013 0
0.0263795 -0.0813316 0
0.0217521 -0.0789925 0
0.027861 -0.0795188 0
0.0249797 -0.0812988 0
0.0237974 -0.0807081 0
0.026359 -0.0815208 0
0.0218003 -0.0794116 0
0.026338 -0.0817104 0
0.0226045 -0.0802439 0
0.0258443 -0.0819173 0
0.0263071 -0.0819811 0
0.0218475 -0.0798281 0
0.0253031 -0.0821359 0
0.026888 -0.0819559 0
0.0233612 -0.0812018 0
0.0262753 -0.0822524 0
0 0 0
0.0243903 -0.082031 0
0.0219098 -0.0803875 0
0.0262291 -0.0826333 0
0.0282791 -0.0771462 0
0.0209041 -0.0798877 0
0.0267404 -0.0653432 0
0.0219705 -0.0809429 0
0.0272456 -0.0823687 0
0.0261809 -0.0830153 0
0.0209367 -0.0801662 0
0.0251566 -0.0831084 0
0.0222036 -0.0481213 0
0.0234812 -0.0823946 0
0.0209786 -0.0805288 0
0.0279611 -0.0810187 0
0.0256474 -0.0833588 0
0.0228021 -0.0821328 0
0.0261113 -0.0835426 0
0.0220491 -0.0816791 0
0.0266581 -0.0834387 0
0.0210334 -0.0810092 0
0.0266368 -0.0836154 0
0.0266047 -0.0838763 0
0.026038 -0.0840721 0
0.0245621 -0.083865 0
0.0221248 -0.0824094 0
0.0240903 -0.0836958 0
0.0211049 -0.0816501 0
0.0277138 -0.0827357 0
0.0265566 -0.0842556 0
0.0249459 -0.0843842 0
0.0236229 -0.0838978 0
0.0259331 -0.0847904 0
0.0211977 -0.0825044 0
0.0222204 -0.0833619 0
0.0264848 -0.084798 0
0.0253415 -0.0852947 0
0.028034 -0.0825045 0
0.0282471 -0.0808187 0
0.0273818 -0.0844402 0
0.0230312 -0.0845342 0
0.0258214 -0.0855125 0
0.0283546 -0.0789798 0
0.0201793 -0.0825101 0
0.0263781 -0.0855608 0
0.0223113 -0.0843051 0
0.0201965 -0.0826625 0
0.021316 -0.0836348 0
0.0247127 -0.0856723 0
0.0202134 -0.0828137 0
0.0237522 -0.0853816 0
0.0202351 -0.0830078 0
0.0202564 -0.0832005 0
0.0202841 -0.0834528 0
0.0268285 -0.0859418 0
0.0256627 -0.086475 0
0.0268167 -0.08603 0
0.0268048 -0.0861183 0
0.0203113 -0.0837035 0
0.026787 -0.0862486 0
0.0262191 -0.0866161 0
0.0224221 -0.0855131 0
0.0267689 -0.086379 0
0.020347 -0.0840354 0
0.0267424 -0.0865683 0
0.0214626 -0.0851123 0
0.020382 -0.0843651 0
0.0267155 -0.0867578 0
0.0266764 -0.0870282 0
0.0280851 -0.0840599 0
0.025492 -0.0874438 0
0.0204279 -0.0848027 0
0.0243837 -0.0873313 0
0.0238961 -0.0872098 0
0.0266363 -0.087299 0
0.0225252 -0.0867064 0
0.0204726 -0.0852371 0
0.0248685 -0.0878517 0
0.0272049 -0.0869162 0
0.0265787 -0.087679 0
0.0232791 -0.0875162 0
0.0259821 -0.0880525 0
0.0205306 -0.0858114 0
0.0274873 -0.0868313 0
0.0265193 -0.0880597 0
0.0283807 -0.0807779 0
0.0216376 -0.0870122 0
0.0222651 -0.0495915 0
0.0205867 -0.0863811 0
0.0252524 -0.0887122 0
0.0278482 -0.0862323 0
0.0264348 -0.0885847 0
0.0226455 -0.0882038 0
0.0192185 -0.0857229 0
0.0240206 -0.0890076 0
0.0206582 -0.0871272 0
0.019255 -0.0860581 0
0.0263469 -0.0891112 0
0.0281084 -0.0855972 0
0.0192998 -0.0864749 0
0.0269559 -0.0888259 0
0.0269296 -0.0890017 0
0.0207267 -0.0878662 0
0.0249931 -0.0899901 0
0.0256286 -0.089975 0
0.0193557 -0.0870058 0
0.0268901 -0.0892614 0
0.0262229 -0.0898245 0
0.0227539 -0.0896787 0
0.0268314 -0.0896386 0
0.0283027 -0.0842393 0
0.021836 -0.0894079 0
0.0194263 -0.087692 0
0.0208119 -0.0888213 0
0.0260929 -0.0905405 0
0.0267449 -0.0901773 0
0.0267993 -0.0689101 0
0.024147 -0.0911704 0
0.0275334 -0.0891767 0
0.019515 -0.0885839 0
0.0235209 -0.0911255 0
0.0283718 -0.0825609 0
0.0208922 -0.0897656 0
0.0246345 -0.0916325 0
0.0266181 -0.090934 0
0.0259112 -0.0914934 0
0.0281075 -0.0872149 0
0.0228726 -0.0914891 0
0.0196251 -0.0897414 0
0 0 0
0.0209887 -0.090966 0
0.0251028 -0.0925044 0
0.0181754 -0.0889956 0
0.0264327 -0.0919789 0
0.025719 -0.0924507 0
0.018195 -0.0891812 0
0.0182144 -0.0893657 0
0.0135612 -0.0275082 0
0.0270084 -0.0916433 0
0.0182378 -0.0895911 0
0.0220451 -0.0923619 0
0.0269944 -0.0917308 0
0.0269803 -0.0918183 0
0.0182608 -0.0898151 0
0.0242455 -0.0932882 0
0.0269592 -0.0919474 0
0.0197584 -0.0912313 0
0.0210776 -0.0921498 0
0.0182895 -0.090096 0
0.026938 -0.0920766 0
0.0229733 -0.0932658 0
0.0269069 -0.092264 0
0.0183176 -0.0903751 0
0.0268754 -0.0924515 0
0.0254534 -0.0937018 0
0.0183531 -0.0907317 0
0.0261624 -0.0933976 0
0.0268298 -0.092719 0
0.0278495 -0.0900811 0
0.0222253 -0.0510773 0
0.0183878 -0.0910859 0
0.0280753 -0.0888101 0
0.0267833 -0.0929868 0
0.0283272 -0.0843012 0
0.0184318 -0.091543 0
0.0267169 -0.0933622 0
0.0211797 -0.0936267 0
0.0275248 -0.0918266 0
0.0272847 -0.0924764 0
0.0184746 -0.0919965 0
0.0266488 -0.0937381 0
0.019914 -0.0931239 0
0.0251705 -0.0949596 0
0.0185288 -0.0925831 0
0.0237181 -0.095375 0
0.0265526 -0.0942559 0
0.0230729 -0.0953964 0
0.0282291 -0.0875934 0
0.025769 -0.0952905 0
0.0243276 -0.095773 0
0.018581 -0.0931645 0
0.0264534 -0.0947746 0
0.0212704 -0.0950785 0
0.0222419 -0.0959149 0
0.0186462 -0.0939133 0
0.0263146 -0.0954765 0
0.0247849 -0.0965726 0
0.0280152 -0.0904947 0
0.0168551 -0.0929139 0
0.0200864 -0.0954868 0
0.0269862 -0.0947998 0
0.0187084 -0.0946544 0
0.0168973 -0.093326 0
0.0269563 -0.0949732 0
0.0261704 -0.0961802 0
0.0269115 -0.0952291 0
0.0282416 -0.0860259 0
0.0169464 -0.0938142 0
0.0213679 -0.0968522 0
0.0231473 -0.0974785 0
0.0268452 -0.0956007 0
0.0187843 -0.0955998 0
0.0170049 -0.0944087 0
0.0259709 -0.0971151 0
0.0251989 -0.0977717 0
0.026748 -0.0961309 0
0.0274499 -0.0944103 0
0.0243722 -0.0981949 0
0.0170755 -0.0951477 0
0.0188555 -0.0965336 0
0.0266068 -0.0968746 0
0.0257619 -0.0980529 0
0.0214489 -0.0985896 0
0.0171611 -0.0960779 0
0.0279261 -0.0921514 0
0.0202632 -0.098376 0
0.0189398 -0.0977089 0
0.0264026 -0.0978999 0
0.0221342 -0.0524814 0
0.0266284 -0.0723492 0
0.0232044 -0.0999148 0
0.0254763 -0.0992761 0
0.0276823 -0.0942648 0
0.0172641 -0.0972542 0
0.0223926 -0.100075 0
0.0238197 -0.100235 0
0.0281298 -0.0877059 0
0.0190168 -0.0988667 0
0.0261088 -0.0992886 0
0.0215263 -0.100665 0
0.0268802 -0.0978593 0
0.0154545 -0.0968906 0
0.0268647 -0.0979452 0
0.0268492 -0.0980311 0
0.0251752 -0.100504 0
0.0280348 -0.0908783 0
0.0154774 -0.0971199 0
0.0243788 -0.100964 0
0.026826 -0.0981579 0
0.0173855 -0.098738 0
0.0268028 -0.0982848 0
0.0155 -0.0973482 0
0.0267686 -0.0984687 0
0.015526 -0.0976136 0
0.0267342 -0.0986528 0
0.0191039 -0.1003 0
0.0155516 -0.0978777 0
0.0266843 -0.0989151 0
0.0155818 -0.0981935 0
0.0266338 -0.0991776 0
0.0278004 -0.0939027 0
0.0156114 -0.0985075 0
0.0272964 -0.0972604 0
0.0232282 -0.102285 0
0.0265617 -0.0995453 0
0.0204239 -0.101827 0
0.0156471 -0.098892 0
0.0256877 -0.101136 0
0.0264881 -0.0999133 0
0.0247691 -0.102074 0
0.017524 -0.100593 0
0.015682 -0.0992741 0
0.0191805 -0.101707 0
0.0215811 -0.102689 0
0.027053 -0.0984997 0
0 0 0
0.0263845 -0.10042 0
0.0157246 -0.0997495 0
0.0279767 -0.0893679 0
0.0262782 -0.100926 0
0.015766 -0.100222 0
0.0158167 -0.100814 0
0.0261302 -0.101611 0
0.0243389 -0.10365 0
0.0192612 -0.103415 0
0.0158654 -0.101402 0
0.0176743 -0.102881 0
0.0259773 -0.102297 0
0.0250875 -0.103549 0
0.0224533 -0.104809 0
0.0276501 -0.0956209 0
0.0159248 -0.102141 0
0.0216184 -0.10505 0
0.0232158 -0.104989 0
0.0218691 -0.0538448 0
0.0257671 -0.103207 0
0.0266747 -0.101188 0
0.0159812 -0.102873 0
0.0266427 -0.101358 0
0.0193272 -0.105087 0
0.0265949 -0.101608 0
0.0137566 -0.101529 0
0.0237682 -0.105627 0
0.0205391 -0.105843 0
0.0265245 -0.101972 0
0.0255483 -0.104118 0
0.0160488 -0.10379 0
0.0138063 -0.102038 0
0.027075 -0.100021 0
0.0278036 -0.0909864 0
0.0264216 -0.10249 0
0.0138613 -0.102614 0
0.0277269 -0.0940912 0
0.0178252 -0.105652 0
0.0273139 -0.0987355 0
0.016112 -0.104696 0
0.0262727 -0.103215 0
0.0252513 -0.105305 0
0.0139235 -0.103283 0
0.0216267 -0.107343 0
0.0242389 -0.106641 0
0.0193885 -0.107073 0
0.013995 -0.104079 0
0.0260589 -0.104214 0
0.0274531 -0.0974332 0
0.0231626 -0.107608 0
0.0161855 -0.10582 0
0.0249403 -0.106493 0
0.0262527 -0.0756472 0
0.014078 -0.105042 0
0.0162527 -0.106928 0
0.0257537 -0.105564 0
0.012731 -0.0290922 0
0.01943 -0.109009 0
0.0141744 -0.106222 0
0.0275846 -0.0925811 0
0.0245238 -0.10801 0
0.0179593 -0.108935 0
0.0163275 -0.108284 0
0.0216014 -0.109952 0
0.0263837 -0.104387 0
0.0263676 -0.104471 0
0.0263514 -0.104555 0
0.0263274 -0.104679 0
0.0223753 -0.110041 0
0.0263032 -0.104803 0
0.0253204 -0.107355 0
0.020572 -0.110391 0
0.0262678 -0.104982 0
0.0142847 -0.107671 0
0.0262321 -0.105162 0
0.0261806 -0.105418 0
0.026758 -0.102987 0
0.0272352 -0.0992062 0
0.0119939 -0.106205 0
0.0240856 -0.109528 0
0.0261284 -0.105673 0
0.0214786 -0.0550925 0
0.0163932 -0.109617 0
0.0120209 -0.106487 0