# vtk DataFile Version 3.0
File generated from DClib
ASCII

DATASET UNSTRUCTURED_GRID
POINTS 1728 float
30 0 0 
30 0.416667 0 
30 0.833333 0 
29 0 0 
30 1.25 0 
28.75 0.5 0 
30 1.66667 0 
28.75 1.26736 0 
28 0 0 
30 2.08333 0 
28.75 2.01389 0 
30 2.5 0 
27.5 1 0 
27.5 1.33333 0 
30 2.91667 0 
27 0 0 
27.5 1.66667 0 
28.75 2.75 0 
26.8661 0.5 0 
27.5 2 0 
30 3.33333 0 
27.5 2.33333 0 
26.6667 1 0 
27.5 2.66667 0 
28.75 3.48611 0 
30 3.75 0 
27.5 3 0 
26 0 0 
26.25 1.5 0 
27.5 3.33333 0 
30 4.16667 0 
26.25 2.06597 0 
25.8333 1 0 
28.75 4.23264 0 
27.5 3.66667 0 
30 4.58333 0 
26.25 2.65278 0 
27.5 4 0 
26.25 3.25 0 
30 5 0 
25 0 0 
27.5 4.33333 0 
25.0039 0.5 0 
25 1 0 
28.75 5 0 
27.5 4.66667 0 
26.25 3.84722 0 
25 2 0 
24.8006 1.5 0 
25 2.25 0 
25 2.5 0 
27.5 5 0 
25 2.75 0 
26.25 4.43403 0 
25 3 0 
24.1667 1 0 
25 3.25 0 
24 0 0 
24.3333 2 0 
25 3.5 0 
25 3.75 0 
26.25 5 0 
25 4 0 
25 4.25 0 
23.6667 2 0 
25 4.5 0 
23.75 2.5 0 
23.3333 1 0 
23.3294 1.5 0 
23.16 0.5 0 
25 4.75 0 
23.75 2.93403 0 
23 0 0 
25 5 0 
23.75 3.34722 0 
23 2 0 
23.75 3.75 0 
23.75 4.15278 0 
22.5 1 0 
23.75 4.56597 0 
22.5096 2.5 0 
22.3333 2 0 
22 0 0 
23.75 5 0 
22.5 3 0 
22.5 3.16667 0 
22.5 3.33333 0 
22.5 3.5 0 
21.84 1.5 0 
22.5 3.66667 0 
21.6667 1 0 
22.5 3.83333 0 
22.5 4 0 
21.6667 2 0 
21.9667 3 0 
22.5 4.16667 0 
22.5 4.33333 0 
21.3311 0.5 0 
22.5 4.5 0 
22.5 4.66667 0 
22.5 4.83333 0 
21 0 0 
22.5 5 0 
21.2864 2.5 0 
21.4333 3 0 
21 2 0 
20.8333 1 0 
21.25 3.5 0 
21.25 3.73264 0 
20.9 3 0 
21.25 3.98611 0 
21.25 4.25 0 
20.3356 1.5 0 
21.25 4.51389 0 
20.3333 2 0 
21.25 4.76736 0 
20 0 0 
20 1 0 
21.25 5 0 
20.3667 3 0 
20.078 2.5 0 
20.3571 3.5 0 
19.5139 0.5 0 
19.6667 2 0 
19.8333 3 0 
20 4 0 
20 4.08333 0 
20 4.16667 0 
20 4.25 0 
19.1667 1 0 
20 4.33333 0 
20 4.41667 0 
20 4.5 0 
19 0 0 
20 4.58333 0 
20 4.66667 0 
20 4.75 0 
20 4.83333 0 
19.3 3 0 
19.4469 3.5 0 
19.6 4 0 
20 4.91667 0 
20 5 0 
19 2 0 
19.623 4.16667 0 
19.7542 4.5 0 
19.8284 4.66667 0 
19.6801 4.33333 0 
19.8855 4.83333 0 
19.9085 5 0 
19.9168 5.0416 0 
18.8194 1.5 0 
19.7708 4.83333 0 
19.8045 4.91667 0 
19.7201 4.75 0 
19.817 5 0 
19.6566 4.66667 0 
19.8336 5.0832 0 
19.5847 4.58333 0 
18.8816 2.5 0 
19.5085 4.5 0 
19.7339 5.0416 0 
19.632 4.83333 0 
19.7422 5.0832 0 
19.6998 5 0 
19.4323 4.41667 0 
19.7271 5.13645 0 
19.3603 4.33333 0 
19.2969 4.25 0 
19.2 4 0 
19.4656 4.66667 0 
19.6508 5.0832 0 
19.2462 4.16667 0 
19.2125 4.08333 0 
19.558 4.91667 0 
19.5827 5 0 
19.4931 4.83333 0 
19.6206 5.1897 0 
19.3958 4.75 0 
18.7667 3 0 
19.534 5.0832 0 
19.4999 5.0416 0 
19.5446 5.13645 0 
19.2499 4.5 0 
19.5295 5.1897 0 
19.4351 5 0 
19.2744 4.66667 0 
18.3333 1 0 
19.3256 4.83333 0 
19.4172 5.0832 0 
19.4864 5.25679 0 
19.4385 5.1897 0 
19.1369 4.58333 0 
19.0342 4.33333 0 
19.2511 4.91667 0 
19.2875 5 0 
18.3333 2 0 
19.3117 5.13645 0 
19.1578 4.83333 0 
19.3223 5.1897 0 
19.2703 5.0832 0 
18.8678 4.16667 0 
18.8 4 0 
18.9913 4.5 0 
19.0605 4.66667 0 
19.3522 5.32388 0 
19.2054 5.0416 0 
19.305 5.25679 0 
19.0191 4.75 0 
19.2063 5.1897 0 
19.2618 5.32388 0 
19.1044 5 0 
18.8457 4.41667 0 
18.522 3.5 0 
18 0 0 
19.1235 5.0832 0 
18.957 4.83333 0 
19.1716 5.32388 0 
19.1858 5.40708 0 
18.8463 4.66667 0 
18.7082 4.33333 0 
19.0604 5.1897 0 
19.019 5.13645 0 
19.0738 5.25679 0 
18.2333 3 0 
18.7175 4.5 0 
18.9214 5 0 
18.8739 4.91667 0 
19.0565 5.32388 0 
18.9417 5.0832 0 
18.5868 4.25 0 
18.7558 4.83333 0 
18.9149 5.1897 0 
18.6507 4.58333 0 
18.4896 4.16667 0 
18.8406 5.0416 0 
19.0065 5.40708 0 
18.4 4 0 
18.9417 5.32388 0 
18.4247 4.08333 0 
19.0195 5.49027 0 
17.705 0.5 0 
18.6056 4.66667 0 
18.7601 5.0832 0 
18.9303 5.49027 0 
18.6981 5 0 
18.5814 4.75 0 
18.7841 5.25679 0 
18.4437 4.5 0 
18.7348 5.1897 0 
18.7975 5.32388 0 
18.3746 4.33333 0 
18.8415 5.49027 0 
18.6574 5.13645 0 
18.7783 5.40708 0 
18.5171 4.83333 0 
17.6667 2 0 
18.8165 5.59177 0 
18.6539 5.32388 0 
18.3647 4.66667 0 
18.7282 5.49027 0 
18.5388 5.0832 0 
17.5 1 0 
17.6944 2.5 0 
18.4748 5 0 
18.2368 4.41667 0 
18.5552 5.1897 0 
18.4169 4.91667 0 
18.1095 4.16667 0 
18.6153 5.49027 0 
18 4 0 
18.3961 5.0416 0 
17.7 3 0 
18.6405 5.59177 0 
18.1522 4.5 0 
18.278 4.83333 0 
18.4764 5.32388 0 
18.4271 5.25679 0 
18.493 5.40708 0 
18.0412 4.33333 0 
18.6135 5.69327 0 
18.1197 4.58333 0 
18.3178 5.0832 0 
18.3368 5.1897 0 
18.4738 5.49027 0 
18.0936 4.66667 0 
17.295 1.5 0 
18.5265 5.69327 0 
18.2069 5 0 
18.0745 4.75 0 
18.2181 5.13645 0 
17.8684 4.25 0 
18.2997 5.32388 0 
18.4172 5.59177 0 
18.4398 5.69327 0 
18.3329 5.49027 0 
17.5851 3.5 0 
17.9972 4.83333 0 
17.8607 4.5 0 
17.7296 4.16667 0 
18.1189 5.1897 0 
18.053 5.0832 0 
18.3295 5.69327 0 
17 0 0 
18.3699 5.81506 0 
17.6364 4.08333 0 
17.6 4 0 
18.1426 5.40708 0 
17.8224 4.66667 0 
17.6989 4.33333 0 
18.085 5.32388 0 
18.1592 5.49027 0 
17.9389 5 0 
18.2196 5.69327 0 
17.8714 4.91667 0 
17.9947 5.25679 0 
18.1386 5.59177 0 
17.8636 5.0416 0 
17 2 0 
18.1994 5.81506 0 
17.6017 4.41667 0 
17.1667 3 0 
17.7162 4.83333 0 
17.8583 5.1897 0 
18.082 5.69327 0 
17.9865 5.49027 0 
17.7886 5.0832 0 
17.5491 4.5 0 
17.8714 5.32388 0 
18.1263 5.93686 0 
17.538 4.58333 0 
17.3475 4.16667 0 
17.5178 4.66667 0 
17.9452 5.69327 0 
17.6932 5.13645 0 
17.6227 5 0 
17.9834 5.81506 0 
18.0426 5.93686 0 
17.3567 4.33333 0 
16.6667 1 0 
17.4909 4.75 0 
17.777 5.49027 0 
17.2 4 0 
17.7195 5.40708 0 
17.7973 5.59177 0 
17.9594 5.93686 0 
17.5985 5.1897 0 
17.6162 5.32388 0 
17.7767 5.69327 0 
17.3901 4.83333 0 
17.4771 5.0832 0 
17.8533 5.93686 0 
17.2374 4.5 0 
17.14 4.25 0 
17.4799 5.25679 0 
17.5689 5.49027 0 
17.7144 5.81506 0 
17.8388 6.08058 0 
17.213 4.66667 0 
17.7479 5.93686 0 
17.6095 5.69327 0 
17.3065 5 0 
17.2305 4.91667 0 
16.9656 4.16667 0 
17.0045 4.33333 0 
16.6333 3 0 
17.3623 5.32388 0 
16.514 2.5 0 
17.2361 5.0416 0 
17.2929 5.1897 0 
17.616 5.93686 0 
17.6765 6.08058 0 
16.8475 4.08333 0 
16.9368 4.41667 0 
16.8 4 0 
17.3866 5.59177 0 
17.166 5.0832 0 
17.0638 4.83333 0 
16.6389 3.5 0 
16.3333 2 0 
17.3208 5.49027 0 
17.4069 5.69327 0 
16.9034 4.5 0 
17.4849 5.93686 0 
16.9 4.58333 0 
17.2177 5.40708 0 
17.3857 5.81506 0 
17.0768 5.13645 0 
17.5514 6.2243 0 
17.4711 6.08058 0 
16.8721 4.66667 0 
16.9398 5 0 
17.4726 6.2243 0 
17.0642 5.32388 0 
17.3237 5.93686 0 
16 0 0 
17.206 5.69327 0 
16.8246 4.75 0 
16.9882 5.1897 0 
16.6524 4.33333 0 
17.0744 5.49027 0 
16.5811 4.16667 0 
17.3942 6.2243 0 
15.9011 0.5 0 
16.8775 5.25679 0 
16.8056 5.0832 0 
17.1637 5.93686 0 
17.2944 6.2243 0 
17.2156 6.08058 0 
16.6902 4.83333 0 
16.5695 4.5 0 
16.4 4 0 
15.8333 1 0 
16.1 3 0 
16.967 5.69327 0 
17.1951 6.2243 0 
16.9013 5.59177 0 
16.4003 4.25 0 
16.9913 5.81506 0 
16.531 4.66667 0 
16.7676 5.32388 0 
17.218 6.39102 0 
16.7857 5.49027 0 
15.7656 1.5 0 
16.9703 5.93686 0 
16.573 5 0 
16.6359 5.1897 0 
17.071 6.2243 0 
16.4896 4.91667 0 
16.2891 4.33333 0 
16.5091 5.0416 0 
16.1968 4.16667 0 
16.6327 5.40708 0 
17.0671 6.39102 0 
16.9038 6.08058 0 
16.73 5.69327 0 
16.2389 4.41667 0 
16.9477 6.2243 0 
15.6667 2 0 
16.4456 5.0832 0 
16.7787 5.93686 0 
16.2114 4.5 0 
16.3165 4.83333 0 
16.058 4.08333 0 
16.2012 4.58333 0 
16 4 0 
16.3648 5.13645 0 
16.499 5.49027 0 
16.4252 5.32388 0 
16.8761 6.39102 0 
16.7961 6.2243 0 
16.1522 4.66667 0 
16.8845 6.55773 0 
16.2845 5.1897 0 
16.5267 5.81506 0 
16.4528 5.69327 0 
16.551 5.93686 0 
16.0717 4.75 0 
16.1549 5 0 
15.9259 4.33333 0 
16.8124 6.55773 0 
16.6458 6.2243 0 
15.686 3.5 0 
15.5667 3 0 
16.3376 5.59177 0 
16.5303 6.08058 0 
16.1841 5.25679 0 
15.8096 4.16667 0 
16.7405 6.55773 0 
16.6387 6.39102 0 
15.8533 4.5 0 
16.0358 5.0832 0 
15.3376 2.5 0 
16.6491 6.55773 0 
16.1687 5.49027 0 
16.4642 6.2243 0 
16.0844 5.32388 0 
16.3256 5.93686 0 
15.8948 4.83333 0 
15.6 4 0 
16.1781 5.69327 0 
16.5581 6.55773 0 
15.648 4.25 0 
15.7732 4.66667 0 
15 0 0 
15 1 0 
15.885 5.1897 0 
15.9619 5.40708 0 
16.4443 6.55773 0 
16.2843 6.2243 0 
16.3488 6.39102 0 
15.5506 4.33333 0 
16.5044 6.74779 0 
15.7367 5 0 
15 2 0 
16.0624 5.93686 0 
15.5053 4.41667 0 
16.3312 6.55773 0 
15.4227 4.16667 0 
15.9888 5.81506 0 
15.6473 4.91667 0 
16.0911 6.08058 0 
15.6815 5.0416 0 
15.8405 5.49027 0 
16.3687 6.74779 0 
15.4699 4.5 0 
15.8621 5.69327 0 
15.6264 5.0832 0 
16.0706 6.2243 0 
15.6975 5.32388 0 
15.0333 3 0 
15.4388 4.58333 0 
16.192 6.55773 0 
15.2675 4.08333 0 
15.4731 4.83333 0 
15.5562 5.13645 0 
15.2 4 0 
15.6938 5.59177 0 
16.1966 6.74779 0 
15.3559 4.66667 0 
16.0016 6.39102 0 
15.8018 5.93686 0 
16.0539 6.55773 0 
15.4864 5.1897 0 
15.1755 4.33333 0 
15.8593 6.2243 0 
16.1243 6.93785 0 
15.2312 4.75 0 
15.3989 5.25679 0 
15.5486 5.69327 0 
15.4684 5.49027 0 
15.0326 4.16667 0 
15.2684 5 0 
15.9822 6.74779 0 
15.887 6.55773 0 
16.0607 6.93785 0 
15.0865 4.5 0 
15.3119 5.32388 0 
15.9973 6.93785 0 
15.5838 6.08058 0 
15.5025 5.93686 0 
14.7291 3.5 0 
15.6125 6.2243 0 
15.1682 5.0832 0 
15.9165 6.93785 0 
14.8819 4.25 0 
15.7215 6.55773 0 
14.8 4 0 
15.3764 5.81506 0 
15.2047 5.40708 0 
15.0047 4.83333 0 
15.5933 6.39102 0 
14.9385 4.66667 0 
15.836 6.93785 0 
14.5 3 0 
14.3333 2 0 
15.7199 6.74779 0 
14.7876 4.33333 0 
15.0407 5.1897 0 
14.2344 1.5 0 
15.7351 6.93785 0 
15.194 5.69327 0 
14.1667 1 0 
15.0983 5.49027 0 
15.5249 6.55773 0 
14.7342 4.41667 0 
15.3685 6.2243 0 
14.0989 0.5 0 
14.6427 4.16667 0 
15.206 5.93686 0 
15.6347 6.93785 0 
14.6774 4.5 0 
15.6986 7.15071 0 
14 0 0 
14.8001 5 0 
14.8812 5.32388 0 
14.1624 2.5 0 
14.9694 5.59177 0 
14.4761 4.08333 0 
14.6119 4.58333 0 
14.7552 5.0416 0 
15.5109 6.93785 0 
14.7062 4.91667 0 
15.3302 6.55773 0 
15.4049 6.74779 0 
15.5817 7.15071 0 
14.4 4 0 
14.7102 5.0832 0 
15.0883 6.2243 0 
15.3878 6.93785 0 
15.0074 6.08058 0 
14.6528 5.13645 0 
14.3998 4.33333 0 
14.8415 5.69327 0 
15.1217 6.39102 0 
14.5362 4.83333 0 
14.4837 4.66667 0 
15.4329 7.15071 0 
14.871 5.93686 0 
14.5955 5.1897 0 
14.6853 5.49027 0 
15.1028 6.55773 0 
14.2495 4.16667 0 
15.2386 6.93785 0 
13.9667 3 0 
14.5234 5.25679 0 
14.2684 4.5 0 
14.6893 5.81506 0 
[...]
POINT_DATA 1728
SCALARS phi float 1
LOOKUP_TABLE default
VECTORS Displacement float
0 0 0
0 -0.0026329 0
0 -0.00471255 0
0 0 0
0 -0.00630336 0
0.00122191 -0.00309115 0
0 -0.00755872 0
0.00224395 -0.00631823 0
0 0 0
0 -0.00853071 0
0.00286542 -0.00829115 0
0 -0.00927101 0
0.00424603 -0.00522188 0
0.00493033 -0.00630748 0
0 -0.00976715 0
0 0 0
0.00547571 -0.00722299 0
0.00328981 -0.00948633 0
0.00393577 -0.00307417 0
0.00596607 -0.00794073 0
0 -0.0100838 0
0.0063512 -0.00854168 0
0.00605703 -0.00509246 0
0.00668861 -0.00898086 0
0.00355284 -0.0100322 0
0 -0.0101783 0
0.00693311 -0.00929877 0
0 0 0
0.00840583 -0.00647536 0
0.00713869 -0.00950502 0
0 -0.0100845 0
0.00961664 -0.00762869 0
0.00817082 -0.00482725 0
0.00372994 -0.00990863 0
0.00732079 -0.00955582 0
0 -0.00974539 0
0.0106002 -0.00838463 0
0.00755325 -0.0094366 0
0.0114548 -0.00863279 0
0 -0.00912595 0
0 0 0
0.00786705 -0.00908868 0
0.00821081 -0.00279214 0
0.0107864 -0.00445698 0
0.00403221 -0.0087461 0
0.00825863 -0.00849848 0
0.0123578 -0.00802065 0
0.0138396 -0.00625845 0
0.0132725 -0.00534926 0
0.0144599 -0.00650819 0
0.0150861 -0.00665626 0
0.00878973 -0.00763022 0
0.0156904 -0.00671497 0
0.0136149 -0.00642989 0
0.0163525 -0.00663027 0
0.0141204 -0.00396265 0
0.0171002 -0.00637089 0
0 0 0
0.0169333 -0.00522861 0
0.0179543 -0.00590397 0
0.0189076 -0.00521116 0
0.0154111 -0.00395738 0
0.0199704 -0.00426073 0
0.0211067 -0.00307741 0
0.0209371 -0.00395994 0
0.0223087 -0.00164961 0
0.0222755 -0.00321747 0
0.0182872 -0.00365605 0
0.0210948 -0.00386072 0
0.0145264 -0.00256306 0
0.0235574 -2.13293e-05 0
0.0237745 -0.00204296 0
0 0 0
0.0248212 0.00180734 0
0.0254945 -0.000490713 0
0.0259345 -0.00286178 0
0.0275616 0.00132505 0
0.0300141 0.00336786 0
0.0236277 -0.00348814 0
0.0327169 0.00569981 0
0.0331055 -0.000161803 0
0.0319927 -0.00206613 0
0 0 0
0.0354225 0.008445 0
0.0354821 0.00261751 0
0.0363772 0.00384902 0
0.0372369 0.00513231 0
0.0379134 0.00643897 0
0.0329428 -0.0029252 0
0.038576 0.00774249 0
0.0295971 -0.00331961 0
0.0391791 0.00901943 0
0.0397884 0.0102338 0
0.0386454 -0.00143548 0
0.0417539 0.00371851 0
0.0404015 0.0113888 0
0.041042 0.0124387 0
0.0236581 -0.0026234 0
0.0417291 0.0134113 0
0.0424529 0.0142771 0
0.0432798 0.0150683 0
0 0 0
0.0441304 0.0157741 0
0.0464407 0.000989401 0
0.0481913 0.00398891 0
0.0455069 -0.000926829 0
0.0365578 -0.00289184 0
0.0523052 0.0072647 0
0.0525431 0.00904272 0
0.0541946 0.00367574 0
0.0526178 0.0109781 0
0.0524217 0.012983 0
0.0472831 -0.00190413 0
0.0520196 0.0149079 0
0.0523832 -0.000564272 0
0.0515369 0.0166009 0
0 0 0
0.0441784 -0.00265505 0
0.051046 0.0179427 0
0.0593266 0.00302698 0
0.0586421 0.00089063 0
0.0610636 0.00483426 0
0.0357159 -0.00261224 0
0.058822 -0.000601833 0
0.0637652 0.00206521 0
0.0640629 0.00518365 0
0.0641061 0.00545178 0
0.0640944 0.00572669 0
0.0640025 0.00606499 0
0.0525063 -0.00251348 0
0.0638338 0.00643377 0
0.0636411 0.0068444 0
0.0633617 0.00729918 0
0 0 0
0.063044 0.00779017 0
0.0626429 0.00832153 0
0.0621912 0.00888359 0
0.0616707 0.00946619 0
0.0674071 0.00064672 0
0.0670968 0.00161426 0
0.0665024 0.0029818 0
0.0611525 0.0100897 0
0.0605986 0.0107241 0
0.0649456 -0.00118535 0
0.0661615 0.00334702 0
0.0648999 0.0048843 0
0.0638671 0.00610819 0
0.0656592 0.00397471 0
0.0626383 0.00761842 0
0.0617194 0.00928657 0
0.0621595 0.009817 0
0.0621402 -0.00199051 0
0.0634659 0.00603366 0
0.0629513 0.00692075 0
0.0640627 0.00514151 0
0.0628329 0.00779477 0
0.064686 0.00432165 0
0.0631172 0.0087049 0
0.0652822 0.0035824 0
0.0683319 -0.000992106 0
0.0658439 0.0029436 0
0.0637455 0.00682912 0
0.0642825 0.00457136 0
0.0636678 0.00717073 0
0.0638939 0.00612085 0
0.0663611 0.00238 0
0.0634774 0.00712508 0
0.0668383 0.00189773 0
0.0672604 0.00148671 0
0.0680638 0.00086756 0
0.0654696 0.00283872 0
0.0640894 0.00579604 0
0.0676271 0.00116593 0
0.0678868 0.000955104 0
0.06468 0.00419567 0
0.0645787 0.00469758 0
0.0650032 0.00337455 0
0.0636179 0.00565086 0
0.0655108 0.00246359 0
0.0704778 -0.00117814 0
0.0644707 0.00432046 0
0.0647524 0.00389505 0
0.064178 0.00452402 0
0.066666 0.00129316 0
0.0639221 0.0044304 0
0.0650527 0.00322708 0
0.0661055 0.00154695 0
0.0608341 -0.00292802 0
0.0656983 0.00213389 0
0.0647532 0.0031209 0
0.0636878 0.00403275 0
0.0641692 0.00341273 0
0.0667508 0.000642014 0
0.0678081 -2.38341e-05 0
0.0657069 0.00167293 0
0.0653644 0.00198355 0
0.0701217 -0.00259972 0
0.0646879 0.00221668 0
0.0661542 0.000978392 0
0.0644073 0.00232811 0
0.0650059 0.00186669 0
0.0687946 -0.000964463 0
0.0694639 -0.00130753 0
0.0674117 -0.000260455 0
0.0668014 0.000247743 0
0.063677 0.00269854 0
0.0653016 0.00136778 0
0.0641137 0.00221888 0
0.0667292 4.403e-05 0
0.0646096 0.00139941 0
0.06387 0.00189758 0
0.065647 0.00064638 0
0.0680687 -0.00112845 0
0.0712491 -0.00257372 0
0 0 0
0.0652371 0.00078147 0
0.06656 -0.000357983 0
0.0640346 0.00118469 0
0.0636153 0.00133766 0
0.0673861 -0.00106955 0
0.0687058 -0.00193282 0
0.0648412 0.000352548 0
0.0651509 6.26296e-05 0
0.0645036 0.000459067 0
0.0730016 -0.0035766 0
0.0681714 -0.00188753 0
0.0659189 -0.00060439 0
0.0663574 -0.000916203 0
0.0642168 0.000352963 0
0.0655139 -0.000468198 0
0.0692989 -0.00262869 0
0.0669018 -0.00168224 0
0.0650612 -0.00064308 0
0.0680793 -0.00230159 0
0.0698327 -0.00316775 0
0.0658576 -0.00114462 0
0.0638966 2.13327e-05 0
0.0706284 -0.00357313 0
0.0643882 -0.000443671 0
0.070286 -0.00349318 0
0.0634817 0.000130438 0
0.0493099 -0.00343919 0
0.0678439 -0.00261778 0
0.0657943 -0.0016834 0
0.0636082 -0.000484338 0
0.0662718 -0.00208847 0
0.0675504 -0.00280013 0
0.0649401 -0.00151803 0
0.0688136 -0.00358881 0
0.0653349 -0.00185415 0
0.064599 -0.00142073 0
0.0695595 -0.00395115 0
0.0637319 -0.00109244 0
0.0657051 -0.00237071 0
0.0642226 -0.00153871 0
0.0673106 -0.0032477 0
0.0746789 -0.00493354 0
0.0632741 -0.00123807 0
0.0648075 -0.00239271 0
0.0682984 -0.00418055 0
0.0638848 -0.00186335 0
0.0661413 -0.00315968 0
0.0685947 -0.00454707 0
0.0753502 -0.00557778 0
0.0666322 -0.00357216 0
0.069571 -0.00486826 0
0.065607 -0.0030594 0
0.0671099 -0.00393616 0
0.0707969 -0.00549435 0
0.064036 -0.00263499 0
0.0716695 -0.00602547 0
0.0665646 -0.00410723 0
0.0751762 -0.00640661 0
0.0634926 -0.00244459 0
0.0694105 -0.00547441 0
0.0677274 -0.00482804 0
0.0650634 -0.00359739 0
0.0654697 -0.00393023 0
0.0646208 -0.00348132 0
0.0703241 -0.0060726 0
0.0630087 -0.00261029 0
0.0691242 -0.0057442 0
0.0664896 -0.00464454 0
0.0659381 -0.00453781 0
0.0642226 -0.00360684 0
0.0688112 -0.00597142 0
0.0746461 -0.00558088 0
0.0631057 -0.00321175 0
0.0670698 -0.00537156 0
0.0684715 -0.00614964 0
0.0663838 -0.00533642 0
0.0710467 -0.00712835 0
0.0653151 -0.00480822 0
0.0637656 -0.00398838 0
0.0632021 -0.00381477 0
0.0644057 -0.00458209 0
0.0743901 -0.0079717 0
0.0682225 -0.00672235 0
0.0700057 -0.00741369 0
0.071704 -0.00795916 0
0.0662665 -0.00603357 0
0.066908 -0.00645606 0
0.063325 -0.00458905 0
0 0 0
0.0626175 -0.00428357 0
0.0722686 -0.00847673 0
0.0726969 -0.00860697 0
0.0650977 -0.00590896 0
0.0693262 -0.00780918 0
0.0710744 -0.00835062 0
0.0656187 -0.00630077 0
0.0646297 -0.00579839 0
0.0675092 -0.00721256 0
0.0634468 -0.00536598 0
0.0680367 -0.00763818 0
0.0661022 -0.00691966 0
0.0641011 -0.00594684 0
0.0674214 -0.0077596 0
0.0783712 -0.00794111 0
0.0627851 -0.00549613 0
0.0709147 -0.00910323 0
0.0770948 -0.00957422 0
0.0687195 -0.00867038 0
0.0666588 -0.0078628 0
0.0635989 -0.00634954 0
0.0648507 -0.00702635 0
0.0673262 -0.00831008 0
0.0706413 -0.00955424 0
0.0659189 -0.0078158 0
0.0621494 -0.00600463 0
0.0702699 -0.00971428 0
0.0725881 -0.0105698 0
0.0699054 -0.00993633 0
0.0637499 -0.00733997 0
0.0671935 -0.00901959 0
0.0680288 -0.00944825 0
0.0629985 -0.00705941 0
0.0622216 -0.00661372 0
0.071821 -0.0107182 0
0.0751603 -0.00641686 0
0.0695417 -0.010203 0
0.0651174 -0.00854306 0
0.0736321 -0.0113613 0
0.065665 -0.00894105 0
0.064508 -0.00841372 0
0.0622941 -0.0072251 0
0.0670486 -0.00973486 0
0.0662762 -0.00966885 0
0.0639356 -0.00857839 0
0.0692963 -0.0110047 0
0.0678182 -0.0105612 0
0.062387 -0.0080114 0
0.0712759 -0.0117686 0
0.0726856 -0.012147 0
0.0668488 -0.0106442 0
0.0653814 -0.0100831 0
0.0632658 -0.0090532 0
0.0615014 -0.008104 0
0.070484 -0.0121354 0
0.0624802 -0.00880219 0
0.0641201 -0.00982992 0
0.0685469 -0.0117605 0
0.0691287 -0.012255 0
0.0734662 -0.0132774 0
0.0725843 -0.0132449 0
0.0788042 -0.0130418 0
0.0666299 -0.0115629 0
0.0803081 -0.0122818 0
0.0684308 -0.0123212 0
0.0675054 -0.0120046 0
0.0625975 -0.00980476 0
0.0616231 -0.00933618 0
0.0741359 -0.01399 0
0.0723111 -0.0138601 0
0.0746368 -0.0141833 0
0.064995 -0.0114994 0
0.0683073 -0.0128849 0
0.0698713 -0.0134229 0
0.0771152 -0.0142877 0
0.0813196 -0.0115938 0
0.065695 -0.0119639 0
0.0643434 -0.0113752 0
0.0719511 -0.0142235 0
0.0627149 -0.0108149 0
0.0715202 -0.0143608 0
0.066332 -0.0127151 0
0.0635947 -0.0115689 0
0.0681385 -0.0136109 0
0.060755 -0.0102897 0
0.0617804 -0.0109283 0
0.0711265 -0.0146795 0
0.0691444 -0.0145417 0
0.0608054 -0.0109087 0
0.0670431 -0.0138536 0
0.0628604 -0.0120777 0
0 0 0
0.0645649 -0.0129419 0
0.0707565 -0.0151469 0
0.0679578 -0.0143417 0
0.0733365 -0.0158627 0
0.0660051 -0.0138819 0
0.0743338 -0.0161122 0
0.0608563 -0.0115303 0
0.0573134 -0.00532371 0
0.0677134 -0.0152695 0
0.068869 -0.015674 0
0.0630056 -0.0133525 0
0.0609223 -0.0123297 0
0.0619807 -0.0129591 0
0.0705226 -0.0162939 0
0.0726188 -0.0167626 0
0.0755449 -0.0171519 0
0.0791153 -0.00950002 0
0.080452 -0.0166661 0
0.0648281 -0.0148504 0
0.060989 -0.0131333 0
0.0655675 -0.0153252 0
0.0743056 -0.0176399 0
0.0639916 -0.0147078 0
0.0717615 -0.0173145 0
0.0674506 -0.0162051 0
0.0597707 -0.0129392 0
0.0663662 -0.0161939 0
0.082857 -0.0126416 0
0.0631822 -0.0149236 0
0.0697339 -0.0174303 0
0.0684752 -0.017139 0
0.0610736 -0.0141514 0
0.0703712 -0.0179941 0
0.0740969 -0.0186589 0
0.0695811 -0.0179958 0
0.0751789 -0.019051 0
0.0670995 -0.0173759 0
0.0598532 -0.0141856 0
0.0622304 -0.0155158 0
0.0650881 -0.0167905 0
0.0737388 -0.0192083 0
0.061159 -0.0151759 0
0.0840776 -0.01562 0
0.0694215 -0.0185637 0
0.0633578 -0.0165124 0
0.0733203 -0.0195789 0
0.0711626 -0.0192759 0
0.0759213 -0.0199525 0
0.0728562 -0.0198069 0
0.0764831 -0.020213 0
0.0692073 -0.0192941 0
0.0667209 -0.0185586 0
0.0679147 -0.0190099 0
0.0599614 -0.0157939 0
0.0612653 -0.0164549 0
0.0724525 -0.0203476 0
0.0586694 -0.0157178 0
0.0689822 -0.0200286 0
0.064459 -0.0185776 0
0.0653901 -0.0191201 0
0.0635667 -0.0184418 0
0.0720891 -0.0211495 0
0.0703918 -0.0208546 0
0.0748356 -0.0215511 0
0.058702 -0.0163389 0
0.0613721 -0.0177433 0
0.0796158 -0.0212713 0
0.0819749 -0.0204594 0
0.0662229 -0.0200172 0
0.0625343 -0.0186916 0
0.0686832 -0.0209596 0
0.0760061 -0.0221164 0
0.0587352 -0.0169622 0
0.060101 -0.0178406 0
0.0740022 -0.0224927 0
0.070036 -0.0219807 0
0.0842761 -0.0200733 0
0.0587787 -0.0177627 0
0.0671233 -0.0213676 0
0.0615026 -0.0193273 0
0.0683675 -0.0218968 0
0.0637731 -0.020396 0
0.0718658 -0.0227723 0
0.0773581 -0.0233879 0
0.065686 -0.0214929 0
0.058823 -0.0185665 0
0.0758656 -0.0236331 0
0.073125 -0.0234935 0
0 0 0
0.0807668 -0.0128014 0
0.069544 -0.0234352 0
0.0679533 -0.0230672 0
0.0588797 -0.0195838 0
0.0616327 -0.0209246 0
0.0602773 -0.0204082 0
0.0755689 -0.024643 0
0.057278 -0.0190457 0
0.0710296 -0.0244169 0
0.0863484 -0.0200028 0
0.0640124 -0.0227327 0
0.0751531 -0.0252231 0
0.0589373 -0.0206058 0
0.0767915 -0.0252907 0
0.0649923 -0.0232858 0
0.0717191 -0.0250456 0
0.0628934 -0.0225812 0
0.0708328 -0.0249711 0
0.0675144 -0.0242467 0
0.0573305 -0.020278 0
0.0747043 -0.0257195 0
0.0660205 -0.0242987 0
0.0706303 -0.0255272 0
0.0617878 -0.0228579 0
0.0688676 -0.0252874 0
0.0834218 -0.0244485 0
0.074234 -0.0261765 0
0.0590094 -0.0218794 0
0.0775765 -0.0263589 0
0.0725461 -0.0264095 0
0.0703629 -0.0262418 0
0.078183 -0.0266807 0
0.0669466 -0.0256974 0
0.0574 -0.0218656 0
0.0738368 -0.027085 0
0.0604938 -0.0235818 0
0.0642465 -0.0251023 0
0.0590823 -0.0231598 0
0.0700862 -0.0269596 0
0.0762674 -0.0278371 0
0.0619412 -0.0248089 0
0.0557591 -0.0225444 0
0.0734881 -0.0283733 0
0.0697245 -0.0278683 0
0.0663443 -0.0271607 0
0.0679448 -0.027613 0
0.0775435 -0.0286001 0
0.0717164 -0.0285699 0
0.0574907 -0.0238811 0
0.0591717 -0.0247305 0
0.0557792 -0.0231483 0
0.0753731 -0.0290553 0
0.0693487 -0.0287819 0
0.0557997 -0.0237539 0
0.0633026 -0.0272751 0
0.0645103 -0.0278909 0
0.0818587 -0.0288905 0
0.0621191 -0.0271326 0
0.0712695 -0.0296503 0
0.0558269 -0.024531 0
0.0773118 -0.0301615 0
0.0592613 -0.0263103 0
0.0789743 -0.0300872 0
0.0655776 -0.0289326 0
0.0688634 -0.0299211 0
0.0732668 -0.0306078 0
0.0607509 -0.0274449 0
0.074513 -0.0308065 0
0.0558547 -0.0253106 0
0.0848023 -0.0286541 0
0.0885465 -0.024737 0
0.0576067 -0.0264019 0
0.0769532 -0.0312467 0
0.0706675 -0.0310441 0
0.0864775 -0.0213804 0
0.0558907 -0.0262963 0
0.0666993 -0.0304907 0
0.0785358 -0.0154821 0
0.0683573 -0.0310672 0
0.0593683 -0.0282171 0
0.0765059 -0.0319722 0
0.0622929 -0.0294788 0
0.0532178 -0.00744607 0
0.0782551 -0.0320177 0
0.0647649 -0.0307212 0
0.0559274 -0.0272856 0
0.0760485 -0.0327299 0
0.0539169 -0.0266656 0
0 0 0
0.0723717 -0.0328861 0
0.0698631 -0.0328165 0
0.0877136 -0.0288552 0
0.0677124 -0.0324743 0
0.079069 -0.033226 0
0.0755889 -0.0335701 0
0.072127 -0.0334056 0
0.0559737 -0.0285173 0
0.0731068 -0.033571 0
0.0594744 -0.0301355 0
0.0577504 -0.0295061 0
0.0539504 -0.0278343 0
0.0797183 -0.0336113 0
0.0718777 -0.0339269 0
0.0624883 -0.0322272 0
0.0560206 -0.0297539 0
0.0637496 -0.0328519 0
0.0715526 -0.0345964 0
0.0776001 -0.034759 0
0.0670384 -0.0338905 0
0.0610441 -0.0320723 0
0.0739448 -0.0349635 0
0.0752051 -0.0349995 0
0.0539949 -0.0293394 0
0.065043 -0.0339971 0
0.0712202 -0.0352686 0
0.0687971 -0.0350377 0
0.0595974 -0.032413 0
0.0789335 -0.0355699 0
0.0560784 -0.0312691 0
0.0860702 -0.0330745 0
0.0707915 -0.0361195 0
0.076682 -0.0365164 0
0.0661924 -0.0356016 0
0.054053 -0.0312491 0
0.0748667 -0.0369247 0
0.0626763 -0.0350034 0
0.057922 -0.0332677 0
0.0703517 -0.0369744 0
0.0561365 -0.0327908 0
0.0897768 -0.0295429 0
0.0786311 -0.0372366 0
0.0519528 -0.0309898 0
0.0597175 -0.0347043 0
0.0730469 -0.0378143 0
0.0804179 -0.0372401 0
0.0519662 -0.0315469 0
0.069791 -0.0380403 0
0.0673987 -0.0377792 0
0.0519799 -0.0321055 0
0.0653075 -0.0373242 0
0.0782318 -0.0384913 0
0.0725088 -0.0387984 0
0.0541274 -0.0336359 0
0.0838737 -0.0372135 0
0.056206 -0.0346251 0
0.0519978 -0.0328225 0
0.0758468 -0.0393237 0
0.0692141 -0.039112 0
0.0777696 -0.0394878 0
0.0795754 -0.0392207 0
0.0520161 -0.033542 0
0.0613631 -0.0375238 0
0.0746281 -0.0398824 0
0.0737483 -0.0182099 0
0.0628806 -0.0382008 0
0.0717957 -0.0400677 0
0.0598522 -0.0373786 0
0.0520398 -0.0344521 0
0.056275 -0.0364672 0
0.0642154 -0.039371 0
0.0773131 -0.0406473 0
0.068488 -0.040427 0
0.0581178 -0.0377502 0
0.0804061 -0.0405293 0
0.0872005 -0.0377389 0
0.052064 -0.0353659 0
0.0542198 -0.0365728 0
0.0810947 -0.0409805 0
0.0708604 -0.0416818 0
0.0655871 -0.0411097 0
0.0768659 -0.042023 0
0.0677389 -0.0417501 0
0.0520946 -0.0365043 0
0.0563549 -0.0386505 0
0.0599813 -0.0400691 0
0.0788303 -0.0423172 0
0.0736651 -0.0428911 0
0.049667 -0.0359742 0
0.063074 -0.0414316 0
0 0 0
0.0521255 -0.037648 0
0.0733766 -0.0433503 0
0.0744233 -0.0436007 0
0.0801962 -0.0429937 0
0.0730846 -0.0438112 0
0.0496918 -0.0370128 0
0.0696463 -0.0437055 0
0.0668097 -0.0433477 0
0.0764879 -0.0441057 0
0.0896157 -0.0339768 0
0.0727065 -0.0444034 0
0.0564328 -0.0408429 0
0.0521636 -0.0390507 0
0.0543302 -0.0401286 0
0.0752544 -0.0449402 0
0.0497245 -0.0383543 0
0.0723226 -0.0449983 0
0.0901375 -0.0385305 0
0.0779055 -0.0448799 0
0.0601206 -0.0431551 0
0.0798416 -0.0448285 0
0.0616917 -0.0438379 0
0.065849 -0.044955 0
0.0522018 -0.0404603 0
0.0718309 -0.0457519 0
0.0583292 -0.0429997 0
0.0817454 -0.0447905 0
0.0632764 -0.0450884 0
0.0497665 -0.0400622 0
0.0713302 -0.0465096 0
0.068089 -0.0462068 0
0.0565195 -0.0433965 0
0.0817044 -0.0286054 0
0.0883069 -0.0425375 0
0.0761451 -0.0467791 0
0.0794122 -0.0463508 0
0.0522473 -0.042161 0
0.0706966 -0.047455 0
0.0807826 -0.0468437 0
0.0646766 -0.0468642 0
0.0789425 -0.0477425 0
0.0602509 -0.0462598 0
0.0498193 -0.0422053 0
0.0544553 -0.044361 0
0.0472863 -0.0411683 0
0.0700496 -0.0484064 0
0.074268 -0.0485198 0
0.0661608 -0.0195654 0
0.0522922 -0.0438704 0
0.0856022 -0.0460739 0
0.0472974 -0.041643 0
0.0566019 -0.0459596 0
0.0770831 -0.0489961 0
0.0473087 -0.0421201 0
0.0816159 -0.0481838 0
0.0736482 -0.0493578 0
0.0692419 -0.0495749 0
0.0661163 -0.0492513 0
0.0473232 -0.0427339 0
0.0634638 -0.0487846 0
0.0784893 -0.0494284 0
0.0823144 -0.0486746 0
0.0473379 -0.0433516 0
0.0728362 -0.0504433 0
0.0523438 -0.0458981 0
0.0498838 -0.0448543 0
0.0758695 -0.0505004 0
0.0392785 -0.00877809 0
0.0684154 -0.0507522 0
0.0473566 -0.044135 0
0.0799577 -0.0504518 0
0.0585424 -0.0490384 0
0.0877536 -0.0377522 0
0.0603851 -0.0497585 0
0.0473755 -0.0449243 0
0.0566894 -0.0488921 0
0.071785 -0.0518301 0
0.0780502 -0.051462 0
0.0813229 -0.0507873 0
0.0620092 -0.0510258 0
0.0523937 -0.0479353 0
0.0674008 -0.0521774 0
0.0473993 -0.045911 0
0.0889929 -0.047324 0
0.0545878 -0.0493087 0
0.0499597 -0.0480773 0
0.0474231 -0.046906 0
0.0704392 -0.0535774 0
0.0636517 -0.052895 0
0 0 0
0.0809233 -0.0528451 0
0.0663619 -0.0536148 0
0.0828393 -0.0526118 0
0.0748149 -0.0542532 0
0.0567695 -0.0518339 0
0.0524485 -0.0503094 0
0.0474523 -0.0481312 0
0.0446285 -0.0469968 0
0.0744854 -0.0546303 0
0.0776609 -0.0542814 0
0.0790247 -0.0540457 0
0.0605063 -0.053279 0
0.0741533 -0.0550097 0
0.0756 -0.0549541 0
0.0446511 -0.0478382 0
0.0474813 -0.0493675 0
0.0737262 -0.0554984 0
0.0804694 -0.0547213 0
0.0651064 -0.0553262 0
0.068735 -0.0557472 0
0.0732947 -0.0559909 0
0.081814 -0.054761 0
0.0446803 -0.0489341 0
0.0764269 -0.0561554 0
0.0524995 -0.0526926 0
0.0727457 -0.0566163 0
0.050044 -0.0519317 0
0.0475157 -0.0508657 0
0.07219 -0.0572477 0
0.0568492 -0.0551385 0
0.0447175 -0.0503432 0
0.0587387 -0.0558602 0
0.079986 -0.0566143 0
0.0638204 -0.0570522 0
0.0569977 -0.0203653 0
0.0547156 -0.0549834 0
0.0889368 -0.0471308 0
0.0826305 -0.0560429 0
0.0714918 -0.0580383 0
0.0475492 -0.0523778 0
0.0772845 -0.0577472 0
0.060624 -0.0571764 0
0.0892686 -0.0518761 0
0.0666024 -0.0583996 0
0.0833626 -0.0565514 0
0.0835444 -0.0405083 0
0.0707836 -0.0588373 0
0.052552 -0.0554183 0
0.0447634 -0.0521314 0
0.086878 -0.0551114 0
0.0475874 -0.054179 0
0.0699056 -0.0598231 0
0.0622916 -0.0590693 0
0.0795145 -0.058924 0
0.0781609 -0.0596284 0
0.0809121 -0.0590311 0
0.0569179 -0.0584511 0
0.0822493 -0.0588038 0
0.0753242 -0.0604315 0
0.05013 -0.0564549 0
0.0690134 -0.0608201 0
0.0448184 -0.0543688 0
0.0419252 -0.0530015 0
0.0476236 -0.0559956 0
0.0746339 -0.0610977 0
0.0419359 -0.0533641 0
0.0525981 -0.0581501 0
0.0419468 -0.0537306 0
0.0419606 -0.0542049 0
0.0639806 -0.0615919 0
0.0607252 -0.0610991 0
0.0737342 -0.0619657 0
0.0679234 -0.0620303 0
0.0419745 -0.0546852 0
0.0790452 -0.0616877 0
0.0769195 -0.0621912 0
0.041992 -0.0552984 0
0.0817851 -0.0611555 0
0.0476628 -0.0581201 0
0.0837501 -0.0605406 0
0.0725771 -0.0630826 0
0.044882 -0.0571248 0
0.0668141 -0.0632533 0
0.0420095 -0.0559207 0
0.0681008 -0.0316446 0
0.0548221 -0.0613615 0
0.0569798 -0.0621027 0
0.0420315 -0.0567044 0
0.0526408 -0.0612135 0
0.0885922 -0.055676 0
0.0711088 -0.0645006 0
0.058897 -0.0634258 0
0.0420534 -0.057501 0
0.0654788 -0.0647108 0
0.0476983 -0.0602589 0
0 0 0
0.0826092 -0.0628575 0
0.079924 -0.0638218 0
0.081294 -0.0634541 0
0.050207 -0.0616519 0
0.0420803 -0.0584897 0
0.0449515 -0.0604602 0
0.0608154 -0.0653631 0
0.0780651 -0.0419395 0
0.069271 -0.0662747 0
0.0785919 -0.0652475 0
0.042107 -0.0594958 0
0.06412 -0.0661833 0
0.0833595 -0.0639993 0
0.0526737 -0.0642764 0
0.0477337 -0.0627106 0
0.0757305 -0.0666098 0
0.0570269 -0.0657603 0
0.0473588 -0.0203617 0
0.0753708 -0.0669049 0
0.0421389 -0.0607251 0
0.0840413 -0.0644648 0
0.0750096 -0.0672025 0
0.0807724 -0.065905 0
0.0390331 -0.0595298 0
0.0765129 -0.0672441 0
0.0745453 -0.0675869 0
0.0740782 -0.0679751 0
0.0390542 -0.0601324 0
0.0625162 -0.067911 0
0.0670042 -0.0684593 0