# vtk DataFile Version 3.0
File generated from DClib
ASCII

DATASET UNSTRUCTURED_GRID
POINTS 1909 float
50 0 0 
48.75 0 0 
50 1.66667 0 
47.5 0 0 
50 3.33333 0 
46.25 0 0 
50 5 0 
45 0 0 
43.75 0 0 
50 6.66667 0 
43 2 0 
42.5 0 0 
50 8.33333 0 
43 4.66667 0 
41.25 0 0 
41.075 2 0 
50 10 0 
40 0 0 
43 7.33333 0 
39.15 2 0 
38.75 0 0 
43 10 0 
37.5 0 0 
37.225 2 0 
36.25 0 0 
36 4 0 
35.3 2 0 
36 5 0 
35 0 0 
35.325 4 0 
36 6 0 
36 7 0 
34.65 4 0 
36 8 0 
33.75 0 0 
33.975 4 0 
36 9 0 
33.375 2 0 
33.3 4 0 
36 10 0 
32.5 0 0 
32.625 4 0 
33 6 0 
31.95 4 0 
33 7.45455 0 
31.45 2 0 
31.25 0 0 
31.95 6 0 
33 8.79545 0 
31.275 4 0 
33 10 0 
30.6 4 0 
30 0 0 
30.9 6 0 
29.925 4 0 
29.525 2 0 
29.85 6 0 
29.25 4 0 
28.75 0 0 
30 8 0 
30 8.45455 0 
28.575 4 0 
29.625 8 0 
30 8.90909 0 
28.8 6 0 
30 9.25 0 
29.782 8.90909 0 
30 9.59091 0 
29.9487 9.59091 0 
29.25 8 0 
29.7462 9.25 0 
30 9.79545 0 
29.897 9.59091 0 
29.564 8.90909 0 
29.9547 9.79545 0 
29.3462 8.45455 0 
29.84 9.59091 0 
30 10 0 
29.8975 9.79545 0 
29.9882 10 0 
29.9902 10.0098 0 
29.7827 9.59091 0 
29.9765 10 0 
29.9804 10.0196 0 
29.9667 10.0098 0 
29.9591 10 0 
29.9686 10.0196 0 
29.9659 10.0341 0 
29.9569 10.0196 0 
29.9418 10 0 
29.9395 10.0196 0 
29.9515 10.0485 0 
29.932 10.0098 0 
29.9424 10.0341 0 
29.8241 9.79545 0 
29.7181 9.59091 0 
29.9166 10 0 
29.9397 10.0485 0 
29.9222 10.0196 0 
29.9279 10.0485 0 
29.9305 10.0695 0 
29.8914 10 0 
29.9077 10.0341 0 
27.9 4 0 
29.897 10.0196 0 
29.9106 10.0485 0 
29.8817 10.0098 0 
29.907 10.0695 0 
29.8933 10.0485 0 
29.9095 10.0905 0 
29.8719 10.0196 0 
27.6 2 0 
29.8556 10 0 
29.8978 10.0905 0 
29.6531 9.59091 0 
29.3437 8.90909 0 
27.5 0 0 
29.8681 10.0485 0 
29.886 10.0905 0 
29.8574 10.0341 0 
29.4839 9.25 0 
29.8723 10.0695 0 
29.7289 9.79545 0 
29.836 10.0196 0 
29.8687 10.0905 0 
29.8197 10 0 
29.8797 10.1203 0 
29.843 10.0485 0 
29.8513 10.0905 0 
29.81 10.0098 0 
29.8561 10.1203 0 
29.8002 10.0196 0 
29.8221 10.0695 0 
29.8072 10.0485 0 
29.8262 10.0905 0 
29.5782 9.59091 0 
29.8498 10.1502 0 
29.7695 10 0 
29.7858 10.0341 0 
29.838 10.1502 0 
29.8215 10.1203 0 
29.8011 10.0905 0 
29.8262 10.1502 0 
29.7714 10.0485 0 
28.875 8 0 
29.75 10.0196 0 
29.8089 10.1502 0 
29.7654 10.0905 0 
29.7193 10 0 
29.7916 10.1502 0 
29.7505 10.0695 0 
29.8079 10.1921 0 
29.7713 10.1203 0 
29.7096 10.0098 0 
29.6047 9.79545 0 
29.503 9.59091 0 
29.7213 10.0485 0 
29.7665 10.1502 0 
29.6999 10.0196 0 
29.7844 10.1921 0 
29.7296 10.0905 0 
29.6856 10.0341 0 
29.7414 10.1502 0 
29.7497 10.1921 0 
29.6503 10 0 
29.7661 10.2339 0 
29.6712 10.0485 0 
29.6999 10.1203 0 
29.7543 10.2339 0 
29.6796 10.0905 0 
29.7057 10.1502 0 
29.7425 10.2339 0 
29.1235 8.90909 0 
29.6309 10.0196 0 
29.6504 10.0695 0 
29.4146 9.59091 0 
29.7252 10.2339 0 
29.6996 10.1921 0 
29.6701 10.1502 0 
29.7079 10.2339 0 
29.6296 10.0905 0 
29.5813 10 0 
29.6023 10.0485 0 
29.5716 10.0098 0 
29.6828 10.2339 0 
29.7086 10.2914 0 
29.2101 9.25 0 
29.562 10.0196 0 
29.6201 10.1502 0 
29.6578 10.2339 0 
29.4428 9.79545 0 
29.5999 10.1203 0 
29.6849 10.2914 0 
29.6283 10.1921 0 
29.5477 10.0341 0 
29.3259 9.59091 0 
29.5608 10.0905 0 
29.5335 10.0485 0 
29.6221 10.2339 0 
29.6503 10.2914 0 
29.5702 10.1502 0 
29.4881 10 0 
29.5128 10.0695 0 
29.6511 10.3489 0 
29.5866 10.2339 0 
29.6392 10.3489 0 
29.4689 10.0196 0 
29.6002 10.2914 0 
29.6273 10.3489 0 
29.4921 10.0905 0 
29.61 10.3489 0 
29.5286 10.1921 0 
29.5016 10.1502 0 
29.5368 10.2339 0 
29.5926 10.3489 0 
29.4405 10.0485 0 
29.2199 9.59091 0 
29.4626 10.1203 0 
29.3949 10 0 
28.9 8.90909 0 
29.5676 10.3489 0 
29.5291 10.2914 0 
29.3853 10.0098 0 
28.6923 8.45455 0 
29.487 10.2339 0 
29.5426 10.3489 0 
29.3758 10.0196 0 
29.5734 10.4266 0 
29.4331 10.1502 0 
29.3993 10.0905 0 
28.5 8 0 
29.3617 10.0341 0 
29.5496 10.4266 0 
29.5071 10.3489 0 
29.2327 9.79545 0 
29.3475 10.0485 0 
29.1136 9.59091 0 
29.4187 10.2339 0 
29.5148 10.4266 0 
29.4716 10.3489 0 
29.3918 10.1921 0 
29.3271 10.0695 0 
29.4298 10.2914 0 
29.2714 10 0 
29.3406 10.1502 0 
28.9208 9.25 0 
29.3066 10.0905 0 
29.4648 10.4266 0 
29.422 10.3489 0 
29.4958 10.5042 0 
29.2524 10.0196 0 
27.75 6 0 
29.3504 10.2339 0 
29.4837 10.5042 0 
29.4718 10.5042 0 
29.2774 10.1203 0 
29.4543 10.5042 0 
29.3724 10.3489 0 
29.2244 10.0485 0 
29.4369 10.5042 0 
29.3938 10.4266 0 
28.9853 9.59091 0 
29.2481 10.1502 0 
28.6766 8.90909 0 
29.4119 10.5042 0 
29.2934 10.2914 0 
27.225 4 0 
29.148 10 0 
29.2582 10.2339 0 
29.1837 10.0905 0 
29.3869 10.5042 0 
29.1385 10.0098 0 
29.3044 10.3489 0 
29.1291 10.0196 0 
29.2072 10.1921 0 
29.3514 10.5042 0 
29.1152 10.0341 0 
29.3929 10.6071 0 
29.2949 10.4266 0 
29.1013 10.0485 0 
29.3686 10.6071 0 
29.316 10.5042 0 
29.2364 10.3489 0 
28.9623 9.79545 0 
29.1257 10.1502 0 
29.1662 10.2339 0 
29.0811 10.0695 0 
28.8566 9.59091 0 
29.3336 10.6071 0 
29.2666 10.5042 0 
29.0609 10.0905 0 
28.9875 10 0 
29.2835 10.6071 0 
29.1448 10.3489 0 
29.0321 10.1203 0 
29.2173 10.5042 0 
29.1098 10.2914 0 
28.125 8 0 
28.9688 10.0196 0 
29.1594 10.4266 0 
28.611 9.25 0 
29.29 10.71 0 
28.4486 8.90909 0 
29.0443 10.2339 0 
29.0033 10.1502 0 
29.2777 10.71 0 
28.9413 10.0485 0 
29.2128 10.6071 0 
29.2655 10.71 0 
29.1497 10.5042 0 
29.2478 10.71 0 
28.7003 9.59091 0 
29.0533 10.3489 0 
29.2303 10.71 0 
28.9629 10.1921 0 
28.9013 10.0905 0 
29.2051 10.71 0 
29.0822 10.5042 0 
29.1801 10.71 0 
28.827 10 0 
29.1144 10.6071 0 
28.8177 10.0098 0 
28.9225 10.2339 0 
28.8085 10.0196 0 
29.1447 10.71 0 
28.7949 10.0341 0 
28.8443 10.1502 0 
28.977 10.4266 0 
28.9322 10.3489 0 
29.1094 10.71 0 
28.7813 10.0485 0 
28.9912 10.5042 0 
29.1562 10.8438 0 
28.5436 9.59091 0 
28.7615 10.0695 0 
28.8669 10.2914 0 
29.1313 10.8438 0 
28.6184 9.79545 0 
29.0602 10.71 0 
28.2207 8.90909 0 
28.7418 10.0905 0 
28.0378 8.45455 0 
28.9798 10.6071 0 
29.0958 10.8438 0 
29.0112 10.71 0 
28.9005 10.5042 0 
28.7136 10.1203 0 
28.7644 10.2339 0 
28.8113 10.3489 0 
29.0454 10.8438 0 
28.6223 10 0 
28.6854 10.1502 0 
28.2746 9.25 0 
28.9441 10.71 0 
28.6042 10.0196 0 
27.75 8 0 
28.9747 10.8438 0 
28.6459 10.1921 0 
28.5773 10.0485 0 
29.0225 10.9775 0 
28.3532 9.59091 0 
28.7804 10.5042 0 
28.736 10.4266 0 
28.8772 10.71 0 
29.0097 10.9775 0 
28.9971 10.9775 0 
28.799 10.6071 0 
28.9791 10.9775 0 
28.5384 10.0905 0 
28.6064 10.2339 0 
28.6543 10.3489 0 
28.9611 10.9775 0 
28.8769 10.8438 0 
27.9867 8.90909 0 
26.25 0 0 
28.9358 10.9775 0 
28.7871 10.71 0 
28.9106 10.9775 0 
28.6607 10.5042 0 
28.4177 10 0 
26.55 4 0 
28.552 10.2914 0 
28.483 10.1502 0 
28.4087 10.0098 0 
28.8751 10.9775 0 
28.3998 10.0196 0 
28.3866 10.0341 0 
28.8399 10.9775 0 
28.6974 10.71 0 
28.3735 10.0485 0 
28.1625 9.59091 0 
28.7436 10.8438 0 
28.4976 10.3489 0 
28.3543 10.0695 0 
28.791 10.9775 0 
28.4052 10.2339 0 
28.3352 10.0905 0 
28.8519 11.1481 0 
28.1869 9.79545 0 
28.5607 10.6071 0 
28.5053 10.5042 0 
28.7423 10.9775 0 
28.8258 11.1481 0 
28.308 10.1203 0 
28.5787 10.71 0 
27.904 9.25 0 
28.7893 11.1481 0 
28.424 10.4266 0 
27.7528 8.90909 0 
28.2807 10.1502 0 
28.6758 10.9775 0 
27.375 8 0 
28.7383 11.1481 0 
28.1619 10 0 
28.5649 10.8438 0 
28.2425 10.1921 0 
28.6096 10.9775 0 
28.1444 10.0196 0 
28.298 10.3489 0 
28.4605 10.71 0 
26.7 6 0 
27.9315 9.59091 0 
28.3503 10.5042 0 
28.6676 11.1481 0 
28.1187 10.0485 0 
28.2042 10.2339 0 
28.5207 10.9775 0 
28.0813 10.0905 0 
28.6814 11.3186 0 
27.3818 8.45455 0 
28.6679 11.3186 0 
28.1516 10.2914 0 
28.5703 11.1481 0 
28.6544 11.3186 0 
28.6358 11.3186 0 
27.5109 8.90909 0 
28.3072 10.71 0 
28.6173 11.3186 0 
28.2524 10.6071 0 
28.4322 10.9775 0 
28.028 10.1502 0 
28.5915 11.3186 0 
28.0989 10.3489 0 
28.33 10.8438 0 
28.5658 11.3186 0 
28.153 10.5042 0 
27.9061 10 0 
27.8975 10.0098 0 
28.5303 11.3186 0 
28.4384 11.1481 0 
27.7002 9.59091 0 
27.889 10.0196 0 
27.8765 10.0341 0 
28.4949 11.3186 0 
28.3154 10.9775 0 
27.9532 10.2339 0 
27.8639 10.0485 0 
28.0276 10.4266 0 
28.1544 10.71 0 
27.8457 10.0695 0 
27.4909 9.25 0 
28.4463 11.3186 0 
27 8 0 
27.8275 10.0905 0 
28.3979 11.3186 0 
27.8015 10.1203 0 
27.6542 9.79545 0 
25.675 2 0 
28.1991 10.9775 0 
27.2691 8.90909 0 
27.9563 10.5042 0 
28.4682 11.5318 0 
28.2625 11.1481 0 
27.7755 10.1502 0 
28.3322 11.3186 0 
27.8502 10.3489 0 
28.4401 11.5318 0 
25.875 4 0 
27.7391 10.1921 0 
28.4019 11.5318 0 
28.0268 10.8438 0 
28.2668 11.3186 0 
27.9602 10.71 0 
28.3498 11.5318 0 
27.4223 9.59091 0 
27.7026 10.2339 0 
27.5927 10 0 
28.0486 10.9775 0 
27.8616 10.6071 0 
27.5762 10.0196 0 
28.1794 11.3186 0 
28.2786 11.5318 0 
27.5519 10.0485 0 
27.6524 10.2914 0 
28.0319 11.1481 0 
27.7108 10.5042 0 
27.5167 10.0905 0 
27.0169 8.90909 0 
28.0924 11.3186 0 
27.6021 10.3489 0 
27.8988 10.9775 0 
28.1818 11.5318 0 
27.7667 10.71 0 
26.625 8 0 
28.255 11.745 0 
27.4664 10.1502 0 
28.2402 11.745 0 
28.2256 11.745 0 
28.2059 11.745 0 
27.978 11.3186 0 
26.7234 8.45455 0 
27.0259 9.25 0 
27.5342 10.4266 0 
28.1863 11.745 0 
27.1442 9.59091 0 
28.0516 11.5318 0 
28.1598 11.745 0 
27.3959 10.2339 0 
28.1334 11.745 0 
27.2793 10 0 
27.2714 10.0098 0 
27.2635 10.0196 0 
27.7086 10.9775 0 
27.6431 10.8438 0 
28.0975 11.745 0 
27.8643 11.3186 0 
27.4661 10.5042 0 
27.2518 10.0341 0 
27.2401 10.0485 0 
28.0617 11.745 0 
26.7648 8.90909 0 
27.5255 10.71 0 
27.7353 11.1481 0 
27.2231 10.0695 0 
28.0133 11.745 0 
27.2061 10.0905 0 
27.8791 11.5318 0 
27.2986 10.3489 0 
27.1818 10.1203 0 
27.9651 11.745 0 
27.3758 10.6071 0 
27.0077 9.79545 0 
27.7174 11.3186 0 
27.1576 10.1502 0 
25 0 0 
27.5193 10.9775 0 
27.9003 11.745 0 
27.1236 10.1921 0 
26.25 8 0 
27.9939 12.0061 0 
25.65 6 0 
27.8359 11.745 0 
26.8136 9.59091 0 
27.0896 10.2339 0 
27.9626 12.0061 0 
27.2853 10.71 0 
25.2 4 0 
27.5713 11.3186 0 
27.9218 12.0061 0 
26.4998 8.90909 0 
27.167 10.5042 0 
27.6541 11.5318 0 
27.0427 10.2914 0 
27.7503 11.745 0 
26.9033 10 0 
27.8677 12.0061 0 
26.8882 10.0196 0 
26.8659 10.0485 0 
26.9958 10.3489 0 
27.2836 10.9775 0 
27.6652 11.745 0 
27.3609 11.1481 0 
27.7955 12.0061 0 
26.499 9.25 0 
[...]
POINT_DATA 1909
SCALARS phi float 1
LOOKUP_TABLE default
VECTORS Displacement float
0 0 0
0 0 0
0 -0.00216171 0
0 0 0
0 -0.00298727 0
0 0 0
0 -0.00256652 0
0 0 0
0 0 0
0 -0.00101373 0
0.00629437 -0.00188567 0
0 0 0
0 0.00157334 0
0.0121321 -0.00105445 0
0 0 0
0.00851019 -0.00185385 0
0 0.00482403 0
0 0 0
0.0161344 0.00282676 0
0.0109395 -0.00188686 0
0 0 0
0.0182614 0.00911919 0
0 0 0
0.0135309 -0.00203167 0
0 0 0
0.0256484 -0.00128424 0
0.016137 -0.00228929 0
0.0303398 0.000236404 0
0 0 0
0.0275074 -0.00142094 0
0.0337583 0.00232753 0
0.0359996 0.00490773 0
0.0293277 -0.0015895 0
0.0372607 0.0076291 0
0 0 0
0.0311355 -0.00185723 0
0.0382208 0.0105668 0
0.0185893 -0.00264297 0
0.0328881 -0.00216316 0
0.0390448 0.014408 0
0 0 0
0.034547 -0.00252995 0
0.0443373 0.0011001 0
0.036119 -0.00293356 0
0.0486828 0.00545893 0
0.0207331 -0.00307173 0
0 0 0
0.0479654 -0.000392975 0
0.050679 0.0110804 0
0.0375672 -0.00338004 0
0.0505041 0.0222126 0
0.038894 -0.00385863 0
0 0 0
0.0510014 -0.00193863 0
0.0400853 -0.00436826 0
0.0224424 -0.00355787 0
0.0535496 -0.00360887 0
0.041131 -0.00490716 0
0 0 0
0.0627689 0.000109126 0
0.0645521 0.00141033 0
0.0420352 -0.00546594 0
0.064028 -0.00100846 0
0.0662676 0.00296654 0
0.0555988 -0.00539726 0
0.0674731 0.00533002 0
0.0672648 0.00206785 0
0.068698 0.00887389 0
0.068903 0.00801497 0
0.0651435 -0.00215873 0
0.0687037 0.00359358 0
0.0696472 0.0122239 0
0.0691196 0.00730157 0
0.0681788 0.00118315 0
0.0699587 0.0114855 0
0.0669372 -0.000871064 0
0.069337 0.00657126 0
0.0705115 0.0172564 0
0.0703488 0.0105596 0
0.0706413 0.0172076 0
0.0899228 0.0279805 0
0.0695516 0.00591323 0
0.0707711 0.0170834 0
0.105404 0.0353773 0
0.0881165 0.026602 0
0.0709686 0.0169307 0
0.103392 0.034079 0
0.107122 0.0346925 0
0.101411 0.0327546 0
0.071169 0.0167334 0
0.0985897 0.0311296 0
0.107133 0.033936 0
0.0858301 0.0248292 0
0.105002 0.0329551 0
0.0708439 0.00948928 0
0.0697996 0.0052819 0
0.0714582 0.0163533 0
0.106928 0.0334479 0
0.0962102 0.029709 0
0.106712 0.0330273 0
0.107679 0.0335981 0
0.0717425 0.0159595 0
0.101389 0.030991 0
0.0427801 -0.00605552 0
0.0934701 0.0278094 0
0.106066 0.0325016 0
0.0836633 0.0225706 0
0.107352 0.0328026 0
0.105033 0.0318072 0
0.107616 0.0330634 0
0.0912452 0.0261839 0
0.0236192 -0.00409027 0
0.0721222 0.0152383 0
0.107498 0.0326779 0
0.0700467 0.00470438 0
0.0690281 0.000272748 0
0 0 0
0.103242 0.0305303 0
0.107357 0.0322826 0
0.0967845 0.0279848 0
0.0698552 0.00218992 0
0.106475 0.0314964 0
0.0714497 0.00829003 0
0.0888565 0.0240251 0
0.107141 0.0316507 0
0.072477 0.0145408 0
0.107614 0.0323904 0
0.101185 0.029145 0
0.106915 0.0310103 0
0.0818067 0.0197234 0
0.107395 0.0315586 0
0.0869832 0.0222033 0
0.104038 0.0292284 0
0.0983451 0.0270296 0
0.106416 0.03009 0
0.0703526 0.00413689 0
0.10737 0.0315721 0
0.0729226 0.0134879 0
0.0917318 0.0239304 0
0.107267 0.0311443 0
0.107029 0.0302902 0
0.105719 0.0290999 0
0.107162 0.0307111 0
0.0957027 0.0250859 0
0.0662129 -0.00331688 0
0.0850866 0.0199109 0
0.106991 0.0300679 0
0.104337 0.027637 0
0.0733123 0.0124938 0
0.106807 0.0294217 0
0.0995875 0.0257561 0
0.107023 0.030399 0
0.106294 0.0283911 0
0.080337 0.0163956 0
0.0721405 0.0069455 0
0.0706573 0.00360655 0
0.0926025 0.0224525 0
0.106532 0.0284742 0
0.0837017 0.0180148 0
0.106826 0.0295186 0
0.102524 0.0260625 0
0.0870863 0.0193128 0
0.106252 0.0275506 0
0.10652 0.0282265 0
0.0737894 0.0112449 0
0.106568 0.0291602 0
0.0900355 0.0202241 0
0.104333 0.0256193 0
0.10647 0.0287145 0
0.099778 0.0238189 0
0.10576 0.02628 0
0.106372 0.0282728 0
0.0698021 -0.000642866 0
0.082363 0.0157769 0
0.093801 0.0211435 0
0.0710349 0.00304492 0
0.106227 0.0276311 0
0.106053 0.0264283 0
0.105161 0.0250431 0
0.106082 0.027003 0
0.0969915 0.0217051 0
0.0741862 0.0100758 0
0.0873419 0.017488 0
0.0791837 0.0128359 0
0.105868 0.0261189 0
0.105917 0.0274562 0
0.0709078 0.00078732 0
0.081402 0.0138947 0
0.103927 0.0233956 0
0.105652 0.0252666 0
0.0728721 0.00540858 0
0.100061 0.021833 0
0.105742 0.026596 0
0.105301 0.024055 0
0.0834866 0.0146881 0
0.0714092 0.00250443 0
0.0935853 0.0189458 0
0.0853674 0.0152892 0
0.10534 0.0240974 0
0.105485 0.0253849 0
0.102238 0.0217014 0
0.0746622 0.00875717 0
0.0881273 0.0160624 0
0.105209 0.0257809 0
0.105025 0.022997 0
0.105128 0.0253647 0
0.0804098 0.0117569 0
0.105114 0.0237429 0
0.105048 0.0249579 0
0.0906799 0.0166157 0
0.104931 0.0243753 0
0.103523 0.0209892 0
0.0995282 0.0194493 0
0.104529 0.0215438 0
0.104815 0.0238108 0
0.0834755 0.0127916 0
0.0718563 0.00189064 0
0.0939051 0.017103 0
0.0750528 0.0075213 0
0.0705246 -0.00157366 0
0.104651 0.0230229 0
0.104596 0.0216262 0
0.0781598 0.0092046 0
0.0688738 -0.00318934 0
0.103956 0.0201925 0
0.104491 0.0222693 0
0.0796528 0.00989303 0
0.104299 0.0236473 0
0.0966331 0.0173135 0
0.0876616 0.0138123 0
0.0671429 -0.0045027 0
0.0809734 0.0103706 0
0.104157 0.0228842 0
0.104266 0.0212509 0
0.0736211 0.00363359 0
0.0821488 0.0107397 0
0.0722957 0.00129143 0
0.102757 0.0184773 0
0.103954 0.021827 0
0.104046 0.020291 0
0.0992629 0.0171339 0
0.0838217 0.0112037 0
0.103842 0.0190364 0
0.0754879 0.00614336 0
0.0930628 0.0145983 0
0.0718825 -0.000660343 0
0.0854525 0.011581 0
0.103674 0.020412 0
0.103735 0.0190282 0
0.103369 0.0216401 0
0.0788132 0.00780519 0
0.0571191 -0.00726953 0
0.101059 0.0167532 0
0.103306 0.0212838 0
0.103245 0.0209365 0
0.0877888 0.0120253 0
0.103158 0.0204423 0
0.103421 0.017856 0
0.0808883 0.00849038 0
0.103072 0.0199645 0
0.103297 0.0185914 0
0.072805 0.000586258 0
0.0900101 0.0123161 0
0.0711748 -0.00251538 0
0.102951 0.0193 0
0.102104 0.0158837 0
0.0433796 -0.0066532 0
0.0758509 0.00484252 0
0.0982727 0.0145519 0
0.0834138 0.00907053 0
0.102834 0.0186636 0
0.0772826 0.00556942 0
0.102936 0.0163453 0
0.0782072 0.00596679 0
0.0928232 0.012499 0
0.102671 0.017801 0
0.0791443 0.00629013 0
0.102275 0.0192349 0
0.102797 0.0163433 0
0.0799495 0.00652592 0
0.102165 0.0185947 0
0.102515 0.0169836 0
0.102358 0.0149576 0
0.0744115 0.0015913 0
0.086955 0.00958994 0
0.0952348 0.0124584 0
0.0810081 0.00678848 0
0.0732958 -0.000107593 0
0.102011 0.0177143 0
0.102303 0.0159076 0
0.0819998 0.00699282 0
0.0761813 0.00331494 0
0.101801 0.0165346 0
0.101096 0.0132313 0
0.0833861 0.00722584 0
0.1021 0.0148991 0
0.0976211 0.0120619 0
0.0679786 -0.00569928 0
0.0776177 0.00394195 0
0.102078 0.0136794 0
0.0728052 -0.0021569 0
0.101204 0.0170223 0
0.0717558 -0.00348036 0
0.091596 0.00982997 0
0.0847625 0.0074029 0
0.101158 0.0167278 0
0.0790554 0.0043875 0
0.101524 0.015005 0
0.101112 0.0164404 0
0.101818 0.0136035 0
0.101047 0.0160338 0
0.0738475 -0.000938799 0
0.0992478 0.0114972 0
0.100983 0.0156391 0
0.086695 0.00757104 0
0.0807213 0.00473155 0
0.100893 0.0150909 0
0.101529 0.0123968 0
0.100806 0.0145626 0
0.0764717 0.0018825 0
0.101169 0.0130898 0
0.0769233 0.00205871 0
0.0885771 0.00763122 0
0.0773545 0.00220963 0
0.100684 0.0138439 0
0.0779037 0.00236768 0
0.0828368 0.00496642 0
0.100224 0.0104892 0
0.0962708 0.00933164 0
0.100567 0.0131571 0
0.0784342 0.00250135 0
0.101052 0.0108608 0
0.0999956 0.0144558 0
0.0743644 -0.00175929 0
0.0791516 0.00265011 0
0.0909831 0.00755034 0
0.0999113 0.0139228 0
0.0753304 -0.000693876 0
0.100408 0.0122445 0
0.0722776 -0.00443695 0
0.0798122 0.0027549 0
0.0703415 -0.0055849 0
0.100719 0.0107638 0
0.0997936 0.0131939 0
0.100256 0.0113792 0
0.100418 0.00944182 0
0.0806919 0.00285387 0
0.0857376 0.00504171 0
0.0931091 0.00729224 0
0.0996329 0.0122144 0
0.0767784 0.0002446 0
0.0815213 0.00290879 0
0.0736781 -0.00372853 0
0.100059 0.0102596 0
0.0772376 0.000346072 0
0.0686677 -0.00690556 0
0.0994192 0.0109308 0
0.0826539 0.00293861 0
0.0779728 0.000486546 0
0.0988365 0.0120994 0
0.0749163 -0.00274957 0
0.0989732 0.00770647 0
0.0953035 0.0067009 0
0.0998738 0.00920787 0
0.0988007 0.0118521 0
0.0987653 0.01161 0
0.10004 0.00803552 0
0.0987158 0.0112715 0
0.0790308 0.000633345 0
0.0837728 0.00292487 0
0.0895688 0.00477581 0
0.0986671 0.0109414 0
0.0991441 0.00929833 0
0.0727483 -0.00540906 0
0 0 0
0.0985985 0.0104849 0
0.0996269 0.00787997 0
0.0985312 0.0100423 0
0.0968563 0.00596457 0
0.0770784 -0.00128958 0
0.0438129 -0.00728832 0
0.0853036 0.00284074 0
0.0803997 0.000705556 0
0.0772106 -0.00129012 0
0.0984377 0.00944009 0
0.0773593 -0.00128382 0
0.0775873 -0.001274 0
0.0983467 0.00885999 0
0.0993723 0.00663732 0
0.0778387 -0.00125714 0
0.0754159 -0.00372569 0
0.0988028 0.00728758 0
0.0868159 0.0026821 0
0.0782128 -0.00123783 0
0.0982224 0.00808592 0
0.0821349 0.000621774 0
0.0786087 -0.00121773 0
0.0975288 0.00939251 0
0.0763819 -0.00324903 0
0.0978694 0.00480948 0
0.0936722 0.00383795 0
0.0981024 0.00734583 0
0.097463 0.00893467 0
0.079154 -0.00121263 0
0.0988755 0.00507891 0
0.0744781 -0.00541824 0
0.097372 0.00831678 0
0.0887592 0.00235286 0
0.0731623 -0.00637042 0
0.0796872 -0.00122709 0
0.0979427 0.00637965 0
0.0692432 -0.00810504 0
0.0972477 0.00748981 0
0.077564 -0.00296204 0
0.0983945 0.00487718 0
0.0803984 -0.00128294 0
0.0977899 0.00546169 0
0.0776948 -0.00303252 0
0.0844188 0.000291173 0
0.0980962 0.00363017 0
0.0580991 -0.00920208 0
0.0759224 -0.0048917 0
0.0905446 0.00189091 0
0.0970807 0.00640209 0
0.0779648 -0.00310475 0
0.0810724 -0.00137286 0
0.0975973 0.00429436 0
0.0784438 -0.00318467 0
0.0962856 0.00689024 0
0.0714022 -0.00796554 0
0.0962572 0.00667325 0
0.0819691 -0.00153753 0
0.0968618 0.00500506 0
0.0962292 0.00646049 0
0.0961905 0.00616917 0
0.0735336 -0.00735362 0
0.0963533 0.00191082 0
0.0961522 0.00588427 0
0.0924767 0.00111093 0
0.0974227 0.00319679 0
0.0792124 -0.00329478 0
0.0960989 0.00549498 0
0.0828407 -0.00173894 0
0.0977114 0.00208937 0
0.0960462 0.0051158 0
0.0873815 -0.000451055 0
0.0780042 -0.00452166 0
0.0780697 -0.00455928 0
0.0959732 0.00460265 0
0.0965851 0.00326179 0
0.0763525 -0.00603948 0
0.0781346 -0.00459717 0
0.0782273 -0.00465389 0
0.0959013 0.00410562 0
0.0971998 0.00183903 0
0.0802788 -0.00350595 0
0.07832 -0.00471107 0
0.0839986 -0.0020611 0
0.0939435 0.000207289 0
0.0784595 -0.00479327 0
0.0751726 -0.00726435 0
0.0958033 0.00344368 0
0.0696843 -0.00930283 0
0.0786025 -0.00487577 0
0.0957075 0.00280704 0
0.0788563 -0.00497195 0
0.0773997 -0.00611202 0
0.0241838 -0.00466078 0
0.0969674 0.000573704 0
0.0738458 -0.0083284 0
0.0851366 -0.00243214 0
0.0948578 0.00402298 0
0.096251 0.00115971 0
0.0791238 -0.0050669 0
0.0955805 0.00197622 0
0.0816413 -0.00390997 0
0.0948056 0.00361041 0
0.0440969 -0.00791717 0
0.0795201 -0.00519628 0
0.0947352 0.00306727 0
0.095018 -0.00109301 0
0.0954583 0.00118425 0
0.0907321 -0.00182751 0
0.0946404 0.00235137 0
0.0767768 -0.00738708 0
0.0799252 -0.00533092 0
0.0785152 -0.00626261 0
0.0963784 -0.000967998 0
0.0865943 -0.00299361 0
0.0786289 -0.00634067 0
0.0953015 0.000174418 0
0.0945134 0.00141745 0
0.0787982 -0.00645711 0
0.0804657 -0.00553843 0
0.095875 -0.00129414 0
0.0833782 -0.00460325 0
0.0790429 -0.00662886 0
0.0741149 -0.00933476 0
0.0951529 -0.000780836 0
0.0809894 -0.00576535 0
0.0953566 -0.00239874 0
0.0943463 0.000222039 0
0.0879769 -0.00363772 0
0.0700251 -0.0104966 0
0.0935096 0.00135272 0
0.0794101 -0.00687328 0
0.0934861 0.00115255 0
0.0934627 0.000956213 0
0.0934317 0.000696008 0
0.0949748 -0.00196592 0
0.0720929 -0.0103184 0
0.0757259 -0.00929789 0
0.0816705 -0.00610583 0
0.0934009 0.000441421 0
0.0771075 -0.00871319 0
0.0941324 -0.00126981 0
0.0933594 0.000101766 0
0.0799517 -0.00722591 0
0.0933183 -0.000229303 0
0.0788792 -0.00795301 0
0.0789352 -0.00799343 0
0.0789912 -0.00803402 0
0.0933052 -0.00402942 0
0.0895428 -0.00457325 0
0.0932627 -0.000670022 0
0.0948156 -0.00307619 0
0.082333 -0.00647288 0
0.0790711 -0.00809431 0
0.0791506 -0.00815498 0
0.093208 -0.00109746 0
0.0743236 -0.0103332 0
0.0855498 -0.00573474 0
0.0950838 -0.00404963 0
0.0792647 -0.0082435 0
0.0931351 -0.00166081 0
0.0793775 -0.00833287 0
0.0938722 -0.00307671 0
0.0807158 -0.007736 0
0.0795381 -0.00846064 0
0.0930641 -0.00220382 0
0.083175 -0.00700335 0
0.0781641 -0.00935468 0
0.0945935 -0.0044168 0
0.0796978 -0.00858994 0
0 0 0
0.0908344 -0.0056081 0
0.0929714 -0.00290785 0
0.0799193 -0.00877316 0
0.0702485 -0.0116861 0
0.0919777 -0.00166681 0
0.0585404 -0.0111816 0
0.0928822 -0.00358144 0
0.0773998 -0.0102555 0
0.0801404 -0.00895929 0
0.0919364 -0.0020532 0
0.0839919 -0.00756946 0
0.0442106 -0.00859478 0
0.0943517 -0.00564526 0
0.0918825 -0.00254224 0
0.0744874 -0.0113726 0
0.0816884 -0.00849351 0
0.0935757 -0.00518954 0
0.0804454 -0.00922154 0
0.0927683 -0.00443682 0
0.0791755 -0.00988685 0
0.0918116 -0.00316821 0
0.0792711 -0.00996733 0
0.0794128 -0.0100872 0
0.0807457 -0.00949166 0
0.088041 -0.00749202 0
0.0926616 -0.00524704 0
0.0918758 -0.00702128 0
0.0917191 -0.00396857 0
0.0760986 -0.0115469 0
0.0796181 -0.0102635 0
0.0850026 -0.00835611 0
0.0936112 -0.00708805 0
0.0811414 -0.00987026 0
0.0916006 -0.00498008 0
0.0925305 -0.00625196 0
0.0799079 -0.0105201 0
0.0829154 -0.00958463 0
0.0745913 -0.0124036 0
0.0724388 -0.0126539 0
0.0775851 -0.0117728 0
0.0932265 -0.00756935 0
0.0815183 -0.0102632 0
0.07038 -0.0128736 0
0.0904945 -0.00448614 0
0.0803057 -0.0108901 0
0.0924109 -0.00719514 0
0.0904769 -0.00467512 0
0.0914534 -0.00623321 0
0.0859604 -0.00919642 0
0.0904595 -0.00486047 0
0.092325 -0.00845009 0
0.0904376 -0.00509585 0
0.090416 -0.00532622 0
0.090388 -0.00562325 0
0.0793397 -0.011762 0
0.0819874 -0.0108049 0
0.0793846 -0.0118026 0
0.0794294 -0.0118433 0
0.0903604 -0.00591299 0
0.0794944 -0.0119036 0
0.0808305 -0.0114217 0
0.0922634 -0.00834043 0
0.0795593 -0.0119643 0
0.0903239 -0.00628876 0
0.079652 -0.0120529 0
0.0912787 -0.00774623 0
0.0902883 -0.00665357 0
0.0797444 -0.0121422 0
0.0798746 -0.0122709 0
0.0746439 -0.0134862 0
0.0824267 -0.0113676 0
0.0902415 -0.00712555 0
0.087059 -0.0103287 0
0.0901908 -0.0100189 0
0.0800034 -0.0124012 0
0.0921131 -0.00942622 0
0.0901967 -0.00758084 0
0.0843791 -0.0111421 0
0.0785269 -0.0130227 0
0.0801815 -0.0125864 0
0.0922121 -0.0102302 0
0.0814907 -0.0121829 0
0.0901388 -0.00816487 0
0.0776833 -0.0135136 0
0.080356 -0.012775 0
0.0704075 -0.0140556 0
0.091074 -0.00952959 0
0.0441711 -0.00924595 0
0.0900847 -0.00872448 0
0.0829854 -0.0121161 0
0.0762298 -0.0140413 0
0.080591 -0.0130398 0
0.0918597 -0.0107334 0
0.0888399 -0.00759236 0
0.0880178 -0.0115338 0
0.0900154 -0.00943247 0
0.0888123 -0.00796094 0
0.0808188 -0.0133107 0
0.0746369 -0.0145603 0
0.0887782 -0.00840606 0
0.0793839 -0.0139134 0
0.079462 -0.0139962 0
0.0899495 -0.0101095 0
0.0835101 -0.0128882 0
0.0822684 -0.0132625 0
0.0887359 -0.00895417 0
0.0795763 -0.0141197 0
0.0811147 -0.0136864 0
0.0915445 -0.0119536 0
0.0797397 -0.0143011 0
0.072465 -0.0149765 0
0.0908175 -0.0116172 0
0.0886839 -0.00963512 0
0.0898754 -0.0109531 0
0.0813973 -0.0140729 0
0.0799672 -0.0145647 0
0.058451 -0.0131987 0
0.0859588 -0.0133251 0
0.0776499 -0.0152294 0
0.0886205 -0.0104805 0
0.0888239 -0.0131139 0
0.0703478 -0.0152349 0
0.0897959 -0.0117658 0
0.0841253 -0.0139069 0
0.0802743 -0.0149439 0
0.0817491 -0.014602 0
0.0745638 -0.015697 0
0.0906563 -0.0133699 0
0.0885433 -0.0115222 0
0 0 0
0.0896923 -0.0127723 0
0.0831041 -0.0147732 0
0.0871769 -0.0105093 0
0.0806748 -0.0154843 0
0.0820721 -0.0151496 0
0.0871674 -0.0106903 0
0.087158 -0.010868 0
0.0240694 -0.00525366 0
0.0792602 -0.0160189 0
0.0871472 -0.011083 0
0.0903942 -0.0140262 0
0.0792952 -0.0160611 0
0.0793301 -0.0161035 0
0.0871367 -0.0112936 0
0.0846648 -0.0149683 0
0.0793811 -0.0161663 0
0.0884495 -0.0127981 0
0.0895726 -0.0137444 0
0.0871237 -0.0115547 0
0.0794317 -0.0162294 0
0.0892317 -0.0147345 0
0.0795044 -0.0163214 0
0.0871115 -0.0118099 0
0.0795763 -0.0164141 0
0.0824501 -0.0158854 0
0.0870954 -0.0121313 0
0.0811725 -0.0162482 0
0.0796775 -0.0165474 0
0.0760374 -0.0168049 0
0.0439559 -0.00995911 0
0.0870802 -0.012445 0
0.0744313 -0.0168255 0
0.0797771 -0.0166819 0
0.0701956 -0.0164076 0
0.0870623 -0.0128415 0
0.0799138 -0.0168725 0
0.0893926 -0.0149297 0
0.0774657 -0.0171727 0
0.0783088 -0.0171386 0
0.0870441 -0.0132291 0
0.0800475 -0.0170657 0
0.0883146 -0.0143617 0
0.0827817 -0.0166481 0
0.0870252 -0.0137202 0
0.0852166 -0.0163555 0
0.080226 -0.0173355 0
0.0872678 -0.0163034 0
0.072191 -0.0172901 0
0.0817488 -0.0173188 0
0.0839129 -0.0168506 0
0.0870035 -0.0142016 0
0.0803983 -0.01761 0
0.089191 -0.0160752 0
0.0891277 -0.0167487 0
0.0869727 -0.014814 0
0.0806209 -0.0179882 0
0.0831344 -0.0176573 0
0.0742171 -0.018025 0
0.085345 -0.0136632 0
0.0880974 -0.016261 0
0.0789335 -0.0183928 0
0.0869365 -0.0154161 0
0.0853327 -0.0140289 0
0.0789945 -0.0184787 0
0.0808316 -0.0183748 0
0.0790834 -0.0186062 0
0.0699611 -0.0175762 0
0.0853182 -0.0144528 0
0.0888517 -0.0174435 0
0.0856278 -0.0178206 0
0.0792101 -0.0187932 0
0.0868813 -0.0161771 0
0.0853012 -0.014957 0
0.0810911 -0.0189002 0
0.0823521 -0.0188011 0
0.0793857 -0.0190635 0
0.0771244 -0.019086 0
0.083413 -0.0187043 0
0.085282 -0.0155693 0
0.0868176 -0.0169242 0
0.0796215 -0.0194497 0
0.0813293 -0.0194394 0
0.0884138 -0.0187404 0
0.0852554 -0.0163272 0
0.0739404 -0.0192158 0
0.0877408 -0.0185201 0
0.0867242 -0.0178562 0
0.079926 -0.0199954 0
0.0435872 -0.0106164 0
0.0578418 -0.0152404 0
0.0844735 -0.0196644 0
0.0816054 -0.0201606 0
0.0754233 -0.0198502 0
0.085214 -0.0172742 0
0.0858827 -0.0196997 0
0.0836534 -0.020063 0
0.0696439 -0.0187369 0
0.0866167 -0.0187668 0
0.0802992 -0.0207588 0
0.087361 -0.0202117 0
0.0784161 -0.0207062 0
0.0834376 -0.0167217 0
0.0784436 -0.0207497 0
0.078471 -0.0207933 0
0.0818428 -0.020904 0
0.0716283 -0.0195981 0
0.0834354 -0.0169119 0
0.0828719 -0.0208224 0
0.0785112 -0.0208578 0
0.0851446 -0.0184591 0
0.078551 -0.0209225 0
0.0834334 -0.0170997 0
0.078608 -0.0210167 0
0.0834317 -0.0173163 0
0.0786645 -0.0211114 0
0.08646 -0.019882 0
0.0834297 -0.0175306 0
0.0787435 -0.0212473 0
0.0834283 -0.017785 0
0.0788212 -0.0213841 0
0.0735667 -0.0204836 0
0.0834259 -0.0180373 0
0.0765728 -0.0212103 0
0.0837746 -0.0214677 0
0.0789275 -0.0215774 0
0.0871434 -0.0211332 0
0.0834216 -0.0183454 0
0.0807253 -0.0218152 0
0.0790308 -0.0217727 0
0.0820893 -0.0218819 0
0.0850275 -0.0199281 0
0.083416 -0.0186511 0
0.0862794 -0.0209653 0
0.085926 -0.0216515 0
0.0773081 -0.0216574 0
0 0 0
0.0791682 -0.0220443 0
0.0834067 -0.0190307 0
0.0692493 -0.0198916 0
0.0793001 -0.0223197 0
0.0833954 -0.0194073 0
0.0833782 -0.0198791 0
0.0794693 -0.0226971 0
0.0822718 -0.0228912 0
0.0860199 -0.022268 0
0.0833579 -0.0203466 0
0.0848312 -0.0217194 0
0.0796283 -0.0230812 0
0.0811571 -0.0232616 0
0.0837569 -0.0232423 0
0.0731267 -0.02174 0
0.0833276 -0.0209332 0
0.084439 -0.0233695 0
0.0831297 -0.0235231 0
0.043034 -0.0113433 0
0.0798229 -0.0236 0
0.0776353 -0.0232459 0
0.0832924 -0.0215128 0
0.0776846 -0.0233334 0
0.0857341 -0.0235337 0
0.0777561 -0.0234632 0
0.0812329 -0.0201527 0
0.0824105 -0.0241935 0
0.0855155 -0.0240462 0
0.0778576 -0.023653 0
0.079999 -0.0241301 0
0.0832403 -0.0222367 0
0.0812322 -0.0205639 0
0.0758523 -0.0232908 0
0.0687814 -0.021035 0
0.0779976 -0.0239265 0
0.08123 -0.0210261 0
0.0707873 -0.0218986 0
0.0845114 -0.0238626 0
0.0742877 -0.0231625 0
0.0831801 -0.0229496 0
0.0781844 -0.0243155 0
0.0801995 -0.0248355 0
0.0812243 -0.0215613 0
0.0835633 -0.0250617 0
0.0815032 -0.0252148 0
0.0852551 -0.0250121 0
0.0812124 -0.0221969 0
0.0784236 -0.0248616 0
0.0725713 -0.023075 0
0.0824486 -0.0255373 0
0.0830929 -0.0238311 0
0.080368 -0.0255588 0
0.0567261 -0.0172748 0
0.0811905 -0.0229653 0
0.0829932 -0.0246967 0
0.0787134 -0.0256195 0
0.0232403 -0.00583331 0
0.0846357 -0.0264253 0
0.0811518 -0.0239039 0
0.0682404 -0.0221684 0
0.0805352 -0.026506 0
0.0840053 -0.0263671 0
0.0828513 -0.0257516 0
0.0828599 -0.0270359 0
0.0766559 -0.025704 0
0.0766783 -0.0257481 0
0.0767006 -0.0257923 0
0.0767335 -0.0258576 0
0.0823597 -0.0272356 0
0.076766 -0.0259231 0
0.0790373 -0.0266592 0
0.0831106 -0.0272906 0
0.0768129 -0.0260184 0
0.0810854 -0.0250539 0
0.0768592 -0.026114 0
0.0769241 -0.0262509 0
0.0748782 -0.0255432 0
0.0719496 -0.0243917 0
0.0789311 -0.0236029 0
0.0806488 -0.0274799 0
0.0769877 -0.0263886 0
0.0423382 -0.0119774 0
0.0826906 -0.0267836 0
0.0789322 -0.023829 0
0.0816068 -0.0278084 0