# vtk DataFile Version 3.0
File generated from DClib
ASCII

DATASET UNSTRUCTURED_GRID
POINTS 922 float
50 0 0 
50 1.66667 0 
47.9167 0 0 
50 3.33333 0 
45.8333 0 0 
50 5 0 
43.75 0 0 
50 6.66667 0 
43 2 0 
41.6667 0 0 
50 8.33333 0 
43 4.66667 0 
50 10 0 
43 7.33333 0 
39.7917 2 0 
39.5833 0 0 
43 10 0 
37.5 0 0 
36.5833 2 0 
36 4 0 
35.4167 0 0 
36 5 0 
36 6 0 
34.875 4 0 
36 7 0 
36 8 0 
36 9 0 
33.3333 0 0 
33.75 4 0 
33.375 2 0 
36 10 0 
32.625 4 0 
33 6 0 
33 7.38776 0 
31.25 0 0 
31.5 4 0 
33 8.72989 0 
31.25 6 0 
33 10 0 
30.1667 2 0 
30.375 4 0 
29.1667 0 0 
29.25 4 0 
29.5 6 0 
30 8 0 
30 8.38776 0 
30 8.77551 0 
30 9.11765 0 
29.375 8 0 
30 9.45978 0 
28.125 4 0 
30 9.72989 0 
29.5436 8.77551 0 
29.7872 9.45978 0 
30 10 0 
29.9616 10.0384 0 
29.9232 10.0768 0 
29.8781 10 0 
29.7038 9.72989 0 
29.5732 9.45978 0 
29.8635 10.1365 0 
29.8013 10.0768 0 
29.7562 10 0 
29.3407 9.11765 0 
29.8038 10.1962 0 
29.7179 10.0384 0 
29.0879 8.77551 0 
29.6796 10.0768 0 
28.75 8 0 
29.5896 10 0 
29.682 10.1962 0 
29.3212 9.45978 0 
29.7137 10.2863 0 
28.8513 8.38776 0 
29.62 10.1365 0 
29.5133 10.0768 0 
29.5605 10.1962 0 
29.318 9.72989 0 
29.6237 10.3763 0 
29.423 10 0 
27.0833 0 0 
29.3851 10.0384 0 
29.4708 10.2863 0 
29.0681 9.45978 0 
29.5022 10.3763 0 
29.3471 10.0768 0 
29.3947 10.1962 0 
29.4922 10.5078 0 
27.75 6 0 
29.2882 10.1365 0 
29.2009 10 0 
29.3811 10.3763 0 
28.6181 8.77551 0 
26.9583 2 0 
29.2293 10.1962 0 
29.1257 10.0768 0 
29.3606 10.6394 0 
29.2162 10.3763 0 
28.6273 9.11765 0 
28.7679 9.45978 0 
29.1405 10.2863 0 
29.25 10.5078 0 
28.9787 10 0 
28.125 8 0 
28.8217 9.72989 0 
29.2395 10.6394 0 
28.9416 10.0384 0 
29.009 10.1962 0 
27 4 0 
29.0518 10.3763 0 
28.9045 10.0768 0 
29.119 10.6394 0 
28.8468 10.1365 0 
29.1744 10.8256 0 
28.4666 9.45978 0 
28.7892 10.1962 0 
28.69 10 0 
28.1489 8.77551 0 
28.9223 10.5078 0 
28.8333 10.3763 0 
28.9555 10.6394 0 
28.617 10.0768 0 
28.7024 10.2863 0 
28.9337 10.8256 0 
28.9882 11.0118 0 
28.7928 10.6394 0 
28.6156 10.3763 0 
28.5038 10.1962 0 
28.4012 10 0 
27.6992 8.38776 0 
28.8679 11.0118 0 
28.1088 9.45978 0 
28.3655 10.0384 0 
28.1935 9.72989 0 
27.5 8 0 
28.3298 10.0768 0 
28.5771 10.6394 0 
28.7485 11.0118 0 
28.489 10.5078 0 
27.8468 9.11765 0 
28.6098 10.8256 0 
28.2744 10.1365 0 
27.6621 8.77551 0 
28.3334 10.3763 0 
28.219 10.1962 0 
28.7333 11.2667 0 
28.5871 11.0118 0 
28.3626 10.6394 0 
28.0354 10 0 
28.1356 10.2863 0 
27.75 9.45978 0 
28.427 11.0118 0 
27.9662 10.0768 0 
28.0523 10.3763 0 
28.4949 11.2667 0 
28.184 10.8256 0 
28.0852 10.6394 0 
27.8587 10.1962 0 
28.2155 11.0118 0 
28.4783 11.5217 0 
27.9307 10.5078 0 
27.1759 8.77551 0 
25.875 4 0 
27.6697 10 0 
26.875 8 0 
27.6363 10.0384 0 
28.3594 11.5217 0 
27.6029 10.0768 0 
28.177 11.2667 0 
27.3262 9.45978 0 
27.4134 9.72989 0 
28.0057 11.0118 0 
27.6971 10.3763 0 
27.8094 10.6394 0 
28.2416 11.5217 0 
27.551 10.1365 0 
27.4992 10.1962 0 
26 6 0 
26.9863 9.11765 0 
28.0837 11.5217 0 
27.4211 10.2863 0 
27.7352 11.0118 0 
27.638 10.8256 0 
28.141 11.859 0 
27.2186 10 0 
27.9274 11.5217 0 
26.5417 8.38776 0 
27.3432 10.3763 0 
27.4616 10.6394 0 
26.6684 8.77551 0 
27.7621 11.2667 0 
26.9013 9.45978 0 
27.155 10.0768 0 
25 0 0 
26.25 8 0 
27.9066 11.859 0 
27.2294 10.5078 0 
27.467 11.0118 0 
27.7222 11.5217 0 
27.0563 10.1962 0 
27.1158 10.6394 0 
27.5191 11.5217 0 
26.7674 10 0 
26.9078 10.3763 0 
27.8036 12.1964 0 
26.7374 10.0384 0 
27.5976 11.859 0 
26.7074 10.0768 0 
27.1297 11.0118 0 
27.2334 11.2667 0 
26.1616 8.77551 0 
26.4044 9.45978 0 
27.6871 12.1964 0 
26.6608 10.1365 0 
26.9553 10.8256 0 
26.4658 9.72989 0 
27.2584 11.5217 0 
26.6142 10.1962 0 
27.5718 12.1964 0 
24.75 4 0 
26.544 10.2863 0 
26.6911 10.6394 0 
26.0333 9.11765 0 
25.625 8 0 
27.4193 12.1964 0 
26.7951 11.0118 0 
27.1983 11.859 0 
26.4737 10.3763 0 
27.0006 11.5217 0 
26.2261 10 0 
27.2684 12.1964 0 
26.3711 10.5078 0 
26.1706 10.0768 0 
25.9068 9.45978 0 
25.6301 8.77551 0 
27.3729 12.6271 0 
27.0723 12.1964 0 
26.5764 11.2667 0 
26.0842 10.1962 0 
26.2685 10.6394 0 
25.377 8.38776 0 
26.6777 11.5217 0 
26.3853 11.0118 0 
27.1446 12.6271 0 
26.8784 12.1964 0 
26.6935 11.859 0 
25.9539 10.3763 0 
26.1234 10.8256 0 
25 8 0 
25.6847 10 0 
26.3582 11.5217 0 
23.75 2 0 
25.6594 10.0384 0 
26.6314 12.1964 0 
25.634 10.0768 0 
26.8487 12.6271 0 
25.0992 8.77551 0 
25.3333 9.45978 0 
25.9784 11.0118 0 
25.5945 10.1365 0 
24.25 6 0 
25.7632 10.6394 0 
25.5549 10.1962 0 
26.9422 13.0578 0 
25.3422 9.72989 0 
25.4952 10.2863 0 
26.3874 12.1964 0 
26.8294 13.0578 0 
24.9782 9.11765 0 
25.968 11.5217 0 
25.4353 10.3763 0 
23.625 4 0 
26.7177 13.0578 0 
26.4709 12.6271 0 
26.0703 11.859 0 
25.7799 11.2667 0 
25.3477 10.5078 0 
26.5729 13.0578 0 
24.375 8 0 
26.0835 12.1964 0 
25.4927 11.0118 0 
25.0532 10 0 
24.5409 8.77551 0 
25.2597 10.6394 0 
26.4296 13.0578 0 
25.0081 10.0768 0 
24.7595 9.45978 0 
25.5816 11.5217 0 
24.9377 10.1962 0 
22.9167 0 0 
26.246 13.0578 0 
25.7833 12.1964 0 
25.1349 10.8256 0 
25.9977 12.6271 0 
24.2034 8.38776 0 
26.412 13.588 0 
24.831 10.3763 0 
26.0644 13.0578 0 
25.0097 11.0118 0 
25.3193 11.859 0 
26.1925 13.588 0 
25.1215 11.5217 0 
25.4183 12.1964 0 
23.75 8 0 
23.983 8.77551 0 
24.4216 10 0 
25.8356 13.0578 0 
24.6735 10.6394 0 
24.402 10.0384 0 
24.3824 10.0768 0 
24.1101 9.45978 0 
24.8375 11.2667 0 
24.3517 10.1365 0 
24.3209 10.1962 0 
25.4179 12.6271 0 
25.9145 13.588 0 
25.6093 13.0578 0 
24.2742 10.2863 0 
24.0443 9.72989 0 
23.8155 9.11765 0 
25.0573 12.1964 0 
24.2272 10.3763 0 
22.5 4 0 
24.4478 11.0118 0 
24.6646 11.5217 0 
24.158 10.5078 0 
25.3298 13.0578 0 
25.8819 14.1181 0 
25.5653 13.588 0 
24.0881 10.6394 0 
23.3961 8.77551 0 
25.7745 14.1181 0 
23.125 8 0 
23.7058 10 0 
25.6676 14.1181 0 
22.5 6 0 
24.6289 12.1964 0 
25.0535 13.0578 0 
23.9883 10.8256 0 
23.461 9.45978 0 
24.4349 11.859 0 
23.6731 10.0768 0 
25.5335 14.1181 0 
23.019 8.38776 0 
24.7229 12.6271 0 
23.6216 10.1962 0 
24.1341 11.5217 0 
25.1327 13.588 0 
23.8872 11.0118 0 
25.4 14.1181 0 
23.5426 10.3763 0 
24.7194 13.0578 0 
25.233 14.1181 0 
24.204 12.1964 0 
23.7472 11.2667 0 
22.8093 8.77551 0 
23.4243 10.6394 0 
22.5 8 0 
25.0671 14.1181 0 
24.3887 13.0578 0 
23.6052 11.5217 0 
24.6061 13.588 0 
22.9901 10 0 
25.2539 14.7461 0 
22.9769 10.0384 0 
24.8614 14.1181 0 
22.7421 9.45978 0 
22.9637 10.0768 0 
22.9429 10.1365 0 
21.375 4 0 
23.2515 11.0118 0 
22.5457 9.11765 0 
22.922 10.1962 0 
23.7117 12.1964 0 
25.046 14.7461 0 
23.9078 12.6271 0 
22.8899 10.2863 0 
24.6571 14.1181 0 
22.8574 10.3763 0 
22.5862 9.72989 0 
23.998 13.0578 0 
23.4145 11.859 0 
22.8089 10.5078 0 
22.1933 8.77551 0 
20.8333 0 0 
24.791 14.7461 0 
24.4076 14.1181 0 
21.875 8 0 
22.7595 10.6394 0 
23.0055 11.5217 0 
23.9777 13.588 0 
22.6878 10.8256 0 
21.822 8.38776 0 
23.2211 12.1964 0 
23.6104 13.0578 0 
24.1597 14.1181 0 
24.4776 14.7461 0 
22.6143 11.0118 0 
20.5417 2 0 
22.0242 9.45978 0 
22.2027 10 0 
22.1829 10.0768 0 
22.1513 10.1962 0 
24.6259 15.3741 0 
23.8624 14.1181 0 
22.5107 11.2667 0 
21.5771 8.77551 0 
24.5253 15.3741 0 
22.1017 10.3763 0 
24.0946 14.7461 0 
22.9704 12.6271 0 
24.4245 15.3741 0 
21.25 8 0 
23.1626 13.0578 0 
20.75 6 0 
22.404 11.5217 0 
22.0253 10.6394 0 
22.6655 12.1964 0 
24.3035 15.3741 0 
23.5669 14.1181 0 
23.2428 13.588 0 
20.25 4 0 
24.1821 15.3741 0 
22.2583 11.859 0 
21.9095 11.0118 0 
24.0354 15.3741 0 
23.6316 14.7461 0 
21.1769 9.11765 0 
22.7163 13.0578 0 
21.2482 9.45978 0 
23.2196 14.1181 0 
21.4154 10 0 
23.8883 15.3741 0 
21.4085 10.0384 0 
21.4016 10.0768 0 
21.3905 10.1365 0 
20.9332 8.77551 0 
21.3792 10.1962 0 
21.3616 10.2863 0 
22.108 12.1964 0 
20.625 8 0 
23.7106 15.3741 0 
21.3434 10.3763 0 
21.7377 11.5217 0 
21.3158 10.5078 0 
20.6106 8.38776 0 
22.874 14.1181 0 
20.9961 9.72989 0 
23.5323 15.3741 0 
21.2869 10.6394 0 
23.9109 16.0891 0 
23.0804 14.7461 0 
22.2122 13.0578 0 
21.2441 10.8256 0 
22.3997 13.588 0 
23.3184 15.3741 0 
21.91 12.6271 0 
23.7168 16.0891 0 
21.1989 11.0118 0 
22.4765 14.1181 0 
23.1037 15.3741 0 
20.2886 8.77551 0 
21.1336 11.2667 0 
20.4742 9.45978 0 
21.4902 12.1964 0 
23.4886 16.0891 0 
20 8 0 
20.5755 10 0 
20.5672 10.0768 0 
19.125 4 0 
21.0644 11.5217 0 
21.7064 13.0578 0 
20.5533 10.1962 0 
22.8492 15.3741 0 
20.5305 10.3763 0 
23.217 16.0891 0 
18.75 0 0 
22.4362 14.7461 0 
22.0799 14.1181 0 
20.9674 11.859 0 
20.493 10.6394 0 
22.5939 15.3741 0 
22.8917 16.0891 0 
20.4322 11.0118 0 
19 6 0 
20.8648 12.1964 0 
19.7252 9.11765 0 
21.4494 13.588 0 
19.6198 8.77551 0 
23.1959 16.8041 0 
19.375 8 0 
21.1471 13.0578 0 
22.2963 15.3741 0 
21.634 14.1181 0 
23.1028 16.8041 0 
19.3826 8.38776 0 
19.6592 9.45978 0 
23.0087 16.8041 0 
20.3354 11.5217 0 
22.5023 16.0891 0 
19.7357 10 0 
20.7266 12.6271 0 
22.9022 16.8041 0 
19.7337 10.0384 0 
19.7316 10.0768 0 
21.6986 14.7461 0 
19.7282 10.1365 0 
21.9981 15.3741 0 
19.7246 10.1962 0 
22.7943 16.8041 0 
19.7187 10.2863 0 
19.7123 10.3763 0 
19.7021 10.5078 0 
22.6703 16.8041 0 
21.1873 14.1181 0 
19.691 10.6394 0 
20.5814 13.0578 0 
22.5445 16.8041 0 
19.315 9.72989 0 
19.6735 10.8256 0 
20.1866 12.1964 0 
21.6575 15.3741 0 
18 4 0 
18.75 8 0 
22.04 16.0891 0 
18.9498 8.77551 0 
19.6542 11.0118 0 
22.3982 16.8041 0 
19.6249 11.2667 0 
22.2495 16.8041 0 
19.5925 11.5217 0 
20.6965 14.1181 0 
21.3165 15.3741 0 
18.8474 9.45978 0 
20.395 13.588 0 
22.076 16.8041 0 
20.8727 14.7461 0 
19.5453 11.859 0 
18.8678 10 0 
22.415 17.585 0 
18.8667 10.0768 0 
17.3333 2 0 
21.4999 16.0891 0 
21.8995 16.8041 0 
19.969 13.0578 0 
18.8645 10.1962 0 
18.8602 10.3763 0 
19.4934 12.1964 0 
18.125 8 0 
22.2346 17.585 0 
20.9365 15.3741 0 
18.8517 10.6394 0 
21.6943 16.8041 0 
18.261 8.77551 0 
18.1362 8.38776 0 
20.2023 14.1181 0 
22.0344 17.585 0 
18.8358 11.0118 0 
18.2149 9.11765 0 
19.4214 12.6271 0 
21.4858 16.8041 0 
20.5569 15.3741 0 
21.8073 17.585 0 
18.807 11.5217 0 
20.8831 16.0891 0 
17.25 6 0 
21.246 16.8041 0 
19.3437 13.0578 0 
16.6667 0 0 
18.0163 9.45978 0 
16.875 4 0 
[...]
POINT_DATA 922
SCALARS Sqrt(J2(epse)) float 1
LOOKUP_TABLE default
0.00665355
0.00172358
0.00537952
0.00164501
0.0043528
0.00158469
0.00429411
0.00154912
0.0055139
0.00341467
0.00152985
0.00143827
0.0015203
0.00137183
0.00356426
0.00326157
0.00131999
0.00249423
0.00272209
0.00443889
0.00224223
0.00114621
0.00120724
0.00355725
0.00118938
0.00117929
0.00113582
0.00158316
0.00284261
0.00189685
0.00109353
0.0027543
0.000538882
0.000556035
0.00124296
0.0021319
0.000563537
0.000548198
0.000570028
0.00110972
0.00198946
0.00070137
0.00148447
0.000468008
0.000261117
0.000288813
0.000319406
0.000354473
0.000371684
0.000382427
0.00134242
0.000420862
0.00033124
0.000194061
0.000457337
0.00011485
9.1138e-05
0.000206578
0.000194128
0.000203002
9.78049e-05
7.37648e-05
0.000229146
0.00030612
7.95932e-05
6.76339e-05
0.000348853
6.46113e-05
0.000356361
0.000207822
8.32321e-05
0.000209425
9.83299e-05
0.00044022
7.8759e-05
5.60155e-05
7.4848e-05
0.000234394
8.31403e-05
0.000242743
0.00030591
5.21532e-05
9.19942e-05
0.000252367
9.04823e-05
5.22561e-05
7.12637e-05
0.000103813
0.000436008
6.50358e-05
0.0002376
8.551e-05
0.00035356
0.000486965
6.38998e-05
5.02231e-05
9.56924e-05
8.73705e-05
0.000351492
0.00025799
8.24786e-05
0.000107129
0.000302015
0.000371651
0.000296866
0.000108505
5.1445e-05
6.38819e-05
0.00101416
8.09931e-05
5.16844e-05
0.000102981
6.29203e-05
0.000130601
0.000309249
6.33041e-05
0.000303149
0.000378537
0.000106562
8.44782e-05
0.000113315
5.19567e-05
8.07356e-05
0.000139959
0.000135566
0.000107482
8.16499e-05
6.51886e-05
0.000390567
0.000466292
0.000155735
0.000314569
5.6746e-05
0.000377321
0.000379606
5.70836e-05
0.000118026
0.000146014
0.00010907
0.000404991
0.000148258
6.74303e-05
0.000385339
8.71103e-05
6.81397e-05
0.000200215
0.000166326
0.000112406
0.0003935
8.52507e-05
0.000375341
0.000156342
5.83917e-05
8.69724e-05
0.000212371
0.000156733
0.000124217
7.09739e-05
0.000176893
0.000221374
0.000115388
0.000415842
0.000978715
0.000497456
0.000385327
6.52669e-05
0.000252337
6.56858e-05
0.000224738
0.000377849
0.000468044
0.00016601
9.33616e-05
0.000119562
0.000232692
7.5193e-05
7.60549e-05
0.000436353
0.00045942
0.000264845
9.27057e-05
0.000186937
0.000165861
0.000325729
0.000497973
0.000244276
0.00048278
9.46117e-05
0.000131899
0.000417369
0.000236578
0.000444733
6.71309e-05
0.000150858
0.00039477
0.000337567
0.000123328
0.000175147
0.000277014
7.8885e-05
0.000127535
0.000255206
0.000608827
0.000100878
0.000361283
7.52107e-05
0.000349433
7.56383e-05
0.000195859
0.000247032
0.000445601
0.000442611
0.000407841
8.41523e-05
0.000174423
0.000559139
0.000287798
8.50453e-05
0.000371586
0.000884351
0.000100764
0.000139305
0.000510528
0.000397215
0.000419065
0.00018301
0.000360197
0.000102621
0.000264286
0.000603366
0.00038141
0.000130667
7.68395e-05
0.000510643
0.000442363
0.000507382
0.000429086
0.000254845
8.74081e-05
0.000134574
0.000492487
0.000295795
0.000202481
0.000516846
0.000389734
0.000368385
0.000108102
0.000180714
0.000405695
0.000710098
0.000270309
0.000571649
8.53857e-05
0.000436544
8.57627e-05
0.000525076
0.000467907
0.000502377
0.000188399
9.3131e-05
0.000465743
0.000144999
9.3969e-05
0.00055332
0.000638937
0.000108259
0.000395156
0.000620226
0.000554487
0.00029963
0.000109963
0.000998769
0.000561217
0.000530852
0.000372421
0.000258624
0.000136316
0.000627946
0.000405988
0.000439873
0.000205704
0.000696061
0.000460457
0.00013981
0.000566948
8.65644e-05
0.000565216
0.000272209
9.57524e-05
0.000586858
0.000632642
0.000396251
0.000183768
0.000532678
0.000495876
0.000732376
0.000114428
0.000569518
0.000190517
0.000370905
0.00073789
0.000298284
0.000437586
0.000408213
0.000482568
0.00078828
0.000632987
0.000148505
9.4816e-05
9.51126e-05
0.00055035
0.00025746
0.000101417
0.000102141
0.000529024
0.00074003
0.000567618
0.000114756
0.000697304
0.000587733
0.000391822
0.000116224
0.000980651
0.000205078
0.000269276
0.000140067
0.000627554
0.000781187
0.000737608
0.000143063
0.000471365
0.000871344
0.000406136
0.000763453
0.00078526
0.000497969
0.000428597
0.000560048
0.000183484
0.000602046
0.000362923
9.53769e-05
0.000873535
0.000490127
0.000518638
0.000103311
0.000291336
0.000729387
0.000189269
0.000784816
0.000119667
0.000615171
0.00087016
0.000381165
0.000251263
0.0004895
0.000150002
0.000404578
0.000778947
0.000545912
0.000261436
0.000714336
0.00083019
0.000969212
0.000102214
0.000860103
0.000579378
0.000102441
0.00010803
0.0011139
0.00020098
0.000605281
0.000108609
0.00041247
0.000969306
0.000500767
0.000119761
0.000766621
0.00012095
0.000723016
0.000595089
0.000348333
0.000142041
0.000474196
0.000889918
0.000963521
0.000842415
0.00040263
0.000144481
0.000279225
0.000691797
0.000180516
0.000478855
0.000364204
0.000524736
0.000747242
0.000950789
0.000185285
0.000959054
0.000613225
0.000792783
0.00010197
0.000109209
0.00100761
0.000816645
0.000240986
0.000485854
0.00111989
0.000123645
0.000930338
0.000475196
0.00100651
0.000407224
0.000566961
0.000521395
0.000249519
0.000150166
0.000389548
0.00111494
0.000720603
0.000661385
0.00102096
0.000998475
0.000328055
0.000194796
0.00110186
0.00090181
0.00060188
0.000496322
0.000582223
0.000782657
0.000823609
0.000982819
0.000106018
0.000106279
0.0001118
0.000467272
0.000112302
0.000122771
0.000341634
0.000407291
0.00107991
0.000123708
0.000263646
0.000142702
0.000465243
0.000686588
0.000706863
0.000958898
0.000144561
0.00116543
0.000865127
0.000530707
0.000176388
0.000622702
0.00104866
0.000442341
0.00115958
0.000180029
0.000740207
0.000926578
0.000471601
0.000228917
0.000593413
0.000361242
0.0011459
0.000417648
0.000776058
0.000105222
0.00117598
0.000235563
0.000460706
0.000112715
0.00100809
0.000126422
0.00112335
0.00130984
0.000820175
0.000644778
0.000304432
0.00015024
0.000885942
0.00109116
0.000189015
0.000574488
0.000315241
0.00057819
0.000575292
0.000452667
0.00117445
0.000422748
0.000486686
0.000958303
0.000688638
0.00130206
0.000451324
0.000557898
0.00116819
0.000247779
0.00104895
0.000766529
0.000403626
0.00129044
0.000105426
0.000105759
0.000766524
0.000112162
0.000837065
0.000112655
0.00115342
0.00012377
0.000124552
0.000143082
0.00126901
0.000594374
0.000144411
0.000418501
0.0011295
0.000650861
0.000173526
0.000330339
0.000899261
0.00112479
0.000437565
0.000996838
0.000452687
0.000175875
0.00123674
0.000218648
0.00109523
0.000222767
0.000627066
0.000779777
0.000547221
0.000519062
0.00119267
0.000703389
0.000281305
0.000720642
0.00125419
0.000105538
0.00131352
0.000935331
0.00105006
0.000436153
0.000114432
0.000129058
0.000288028
0.000448793
0.0012424
0.000830613
0.000152136
0.0011366
0.000437157
0.000442359
0.00053459
0.00122156
0.000186695
0.000540979
0.000361868
0.000994184
0.000713588
0.0011901
0.000235626
0.000865185
0.000642822
0.00106914
0.000371341
0.00149725
0.00051832
0.00141547
0.00114696
0.000554921
0.000629923
0.000470035
0.000928562
0.000683022
0.000106963
0.000300862
0.000107382
0.000118273
0.000751707
0.000118851
0.000434258
0.00013623
0.000454922
0.000136957
0.000163208
0.00109175
0.000164085
0.00099172
0.000201396
0.00120516
0.000585297
0.000202466
0.00133335
0.000787169
0.000143638
0.000194276
0.000252358
0.000381802
0.00119375
0.000465262
0.000637789
0.000854776
0.00024702
0.000253767
0.00131503
0.00102515
0.000483593
0.000298154
0.00117215
0.000316426
0.000496536
0.000439034
0.0012852
0.000159172
0.000185655
0.000344917
0.000318368
0.000906298
0.000257633
0.00114005
0.000428681
0.000281608
0.000545685
0.000661801
0.000366187
0.00124318
0.000949068
0.000392135
0.000378726
0.00038436
0.000472829
0.00109652
0.00146992
0.000470197
0.000701916
0.000774787
0.000510085
0.000468294
0.000395004
0.00118816
0.000562278
0.000412768
0.000228762
0.000508258
0.00104105
0.000551773
0.000544296
0.00047599
0.000866605
0.000815097
0.00112012
0.000333649
0.000636236
0.0011417
0.000601163
0.000974167
0.000426882
0.000445376
0.000480529
0.000425497
0.000708265
0.000237679
0.00111711
0.000690601
0.000685863
0.0010405
0.000560621
0.000240646
0.000548464
0.000609842
0.00108673
0.000633102
0.00078162
0.000315792
0.00056223
0.000897946
0.000517276
0.000339822
0.00072029
0.000633972
0.00104895
0.00070469
0.000952637
0.00192215
0.000437877
0.000439417
0.000417293
0.000568897
0.0010022
0.000454141
0.000816317
0.000634101
0.00189619
0.000694136
0.000604073
0.000256604
0.000563868
0.000698045
0.000945433
0.000861796
0.000560877
0.000686182
0.000639911
0.000273945
0.000623333
0.000672398
0.000546575
0.000878927
0.00072155
0.000734775
0.0017398
0.000383788
0.00059829
0.000324044
0.000648108
0.000978855
0.000774445
0.000317204
0.000283423
0.000619269
0.00107443
0.000805221
0.00064621
0.000754037
0.000953863
0.000293122
0.00062469
0.00104514
0.000709584
0.000659417
0.000706956
0.000926044
0.00025279
0.000729632
0.000368306
0.00101169
0.000696987
0.000893604
0.000799793
0.000259106
0.000686864
0.000521469
0.000971951
0.000327043
0.000854538
0.000595688
0.000223025
0.000659515
0.000729759
0.000923805
0.000414253
0.000653551
0.00196902
0.000777987
0.00080716
0.000229417
0.000633962
0.000802228
0.000866029
0.000519178
0.000601812
0.00075113
0.000684841
0.000198523
0.000799733
0.000710631
0.000447048
0.000688955
0.000206344
0.000729971
0.000559952
0.000407351
0.000627186
0.000552993
0.000756472
0.000180182
0.000666102
0.000666961
0.000575522
0.000461221
0.00026896
0.00019091
0.000618534
0.00064667
0.000541772
0.000384849
0.00201329
0.000591393
0.000168906
0.000524922
0.000661879
0.000577704
0.000183622
0.000452874
0.000645533
0.000416595
0.000285753
0.00249926
0.000540015
0.000164758
0.00018338
0.000419775
0.000525231
0.000276106
0.000287775
0.000165985
0.000402307
0.000278456
0.000186594
0.000865682
0.000362685
0.000259943
0.000368944
0.000168473
0.000636688
0.000187892
0.000612325
0.000268289
0.000288925
0.00254135
0.000167421
0.000231632
0.000597865
0.0022702
0.000253678
0.000183265
0.000580726
0.000220064
0.000161174
0.000217185
0.00253098
0.000175064
0.000560754
0.000155817
0.000198549
0.000537346
0.00314613
0.000175646
0.000166834
0.000509814
0.000477209
0.000438505
0.00312688
0.000808004
0.00081224
0.000804123
0.000793919
0.000393024
0.000780484
0.00257831
0.00076951
0.00075441
0.000742232
0.000341192
0.000724943
0.000711284
0.00286797
0.000691805
0.000285369
0.000676433
0.000654764
0.000637438
0.000231252
0.000613601
0.00059405
0.00056808
0.000546055
0.00320079
0.000518051
0.000493461
0.000463776
0.000436871
0.000405187
0.000376266
0.000348864
0.00351556
0.000325324
0.000998017
0.00096971
0.00320176
0.000937354
0.000900261
0.00085806
0.000810662
0.000758376
0.000701951
0.000642643
0.00394771
0.0005823
0.00052389
0.000476931
0.000416116
0.00391028
0.00106901
0.00104663
0.00103078
0.00101518
0.000996702
0.000978688
0.000957417
0.000936847
0.000912645
0.000889313
0.000862289
0.00083627
0.000806856
0.000778568
0.00074757
0.000717844
0.000686473
0.000656606
0.000626518
0.000598322
0.000571705
0.000547284
0.000526782
0.000511451
0.000481223
0.000452884
SCALARS cohesion float 1
LOOKUP_TABLE default
7.70904
7.38106
9.45924
10.2137
9.38272
11.8819
9.47988
7.99354
7.12274
8.57776
14.5624
13.5915
23.3831
8.71611
7.70679
7.91237
19.3035
7.61308
7.22826
11.2349
8.26616
12.1442
11.0316
10.4489
8.60107
9.77832
13.5677
9.48169
9.88192
6.47863
15.1429
9.18391
8.17136
7.83741
10.2402
8.81962
13.4434
7.83049
17.3709
6.08622
8.83277
10.9095
8.85024
8.77386
7.67025
9.40054
12.6656
17.0148
7.46831
19.7805
9.3665
20.7164
12.5544
16.473
12.6689
14.2863
13.2325
13.7222
17.8193
16.6959
12.6398
13.1897
14.5585
15.7915
11.8376
13.6936
11.8951
13.1955
7.56137
14.1142
11.7258
15.868
11.0327
8.15435
12.31
12.9376
11.599
17.2368
10.4356
13.6349
10.0763
13.3163
10.768
15.498
10.313
12.6759
11.3961
9.76992
10.0306
11.8887
13.3488
10.1891
11.2752
6.30362
11.1896
12.3733
9.24474
10.0144
14.2316
14.8535
10.3951
9.5379
13.066
6.99116
16.1573
9.13835
12.6458
10.9145
9.65545
9.83824
12.0612
9.03143
11.2966
8.81417
14.2268
10.6352
12.5994
10.6354
9.21596
9.599
8.88258
11.6468
9.88345
8.61727
8.98385
8.7341
9.36286
10.2753
12.1541
7.33333
8.89135
13.6201
11.7771
14.9133
6.53011
11.2432
8.53925
8.79961
8.78926
12.9649
8.35241
10.5367
9.96509
9.06405
9.92724
9.86393
8.678
8.35013
11.6431
9.24299
13.0231
8.55866
10.7564
8.77766
9.6986
8.01474
8.1112
9.52174
8.40197
9.12693
8.2753
9.47984
9.00139
11.1647
6.10348
10.8025
9.0539
10.3341
9.47953
12.404
13.5768
8.25525
8.45881
7.90023
8.98269
9.70491
9.16922
9.61119
11.7915
8.89198
8.5745
8.08829
7.64169
7.95051
10.6756
8.80804
6.81801
8.18514
7.66642
9.10155
9.22955
11.9354
9.90127
8.34493
5.65224
7.84563
7.77734
7.94477
8.7099
8.82212
7.48484
8.62799
10.3191
7.93783
9.44683
9.99221
7.73045
9.58356
7.80923
9.0036
8.92584
11.5265
9.41017
9.03884
7.33103
12.5363
8.54546
8.58099
9.3797
8.11613
8.08397
7.34062
11.062
5.76972
9.3433
7.72844
7.62974
7.77698
8.49909
10.0339
9.31913
7.47471
9.35807
11.2452
8.86478
7.45101
9.30674
8.92803
8.42447
7.27578
6.62006
8.49298
7.70569
7.41796
9.31804
7.6119
7.70373
7.23944
5.7887
9.89911
8.54207
5.49417
9.6141
9.36358
9.25322
7.40934
8.83355
11.0459
7.75345
8.76824
8.26978
7.28882
8.36453
7.89628
12.0266
7.94272
9.44655
7.899
10.6912
8.67467
7.70239
7.36175
7.90767
7.45653
7.76695
9.14497
7.48396
7.92451
5.99269
9.59915
7.88604
9.81383
8.79849
7.3581
7.95133
9.19833
10.8724
8.86468
8.34964
7.18914
7.99943
9.8005
7.42118
7.61107
6.52189
6.12188
7.73729
8.062
8.05116
8.16395
6.1392
9.13915
10.0965
6.28263
8.77717
9.72502
8.16134
7.4513
9.46543
9.13911
10.6329
9.6421
8.69042
8.32033
7.92345
6.18178
8.27795
7.94444
11.6009
10.2944
10.4236
7.74854
7.15487
8.23391
9.42188
7.59036
8.44163
6.56627
6.26214
7.51479
8.67451
6.58376
6.53139
9.54832
6.60282
7.59349
10.8231
8.61539
7.64812
10.3089
8.73245
8.97285
6.62951
6.41404
8.38802
8.20151
9.71489
6.38873
8.36993
6.65769
7.68448
8.83295
6.69601
11.2023
10.1286
8.50565
7.50534
6.692
6.73483
9.04108
9.94581
6.55528
9.26369
7.04747
9.01529
6.78488
9.8388
8.72925
8.33072
7.05589
8.44172
9.61046
8.01
11.5844
7.08274
8.90948
7.69627
6.83215
7.55526
10.6908
9.26619
9.25558
7.45839
8.29522
6.72561
7.12709
6.88688
6.78255
7.44466
10.121
6.72864
7.6558
6.2549
11.9008
9.4583
6.93434
7.17824
8.45636
5.67507
9.34475
8.87941
8.40406
7.75567
7.69165
6.98125
10.3392
8.05413
7.70286
7.37469
7.23107
9.34836
7.7138
6.9009
9.63178
7.41191
10.2369
7.34964
12.1671
7.72557
7.01548
6.85983
6.91628
7.73653
9.60451
8.45582
7.74962
7.27658
8.78358
9.75579
8.8896
7.03845
8.55045
7.76143
8.34716
8.1095
7.79287
7.82942
7.54039
7.3087
12.3695
6.88249
7.77588
7.23264
10.3416
7.24138
6.04201
7.04132
9.63474
7.7881
7.29693
7.2135
7.29994
9.8333
7.59471
6.89551
7.8024
9.62703
7.21653
8.47681
7.01877
7.81224
7.60957
10.4835
8.453
12.5511
7.22019
6.8827
8.28107
7.89356
7.04049
10.4574
9.86149
7.38317
7.81839
7.17286
7.22176
7.39198
7.27155
6.97126
9.86421
7.29945
7.81606
7.2172
8.57878
7.39991
12.6884
7.98422
6.81207
7.37159
8.9408
6.83455
9.84798
7.8024
6.89049
8.94471
5.77152
8.0623
8.94768
10.5864
7.19833
8.09621
9.76325
8.94861
7.91283
7.77521
7.16632
7.50444
7.77787
7.3148
8.94798
7.17705
7.1937
7.2286
8.94489
6.79004
7.38356
9.78866
8.94023
8.93196
7.78589
12.7564
7.74054
7.1549
6.82607
7.15564
7.29665
8.71688
8.9309
10.7014
8.91872
10.7167
6.66649
7.69565
7.82453
6.61184
8.90172
6.98988
10.1671
8.01107
7.37135
7.70678
6.5762
7.08969
8.88199
9.65355
7.34616
7.22414
12.7367
7.36149
7.35356
7.63706
7.51867
8.85841
7.15074
5.56352
6.53343
7.33451
8.87559
7.47753
9.72473
8.83505
7.57662
7.31293
10.8818
7.0106
6.92802
8.80945
9.49195
8.06459
7.63175
6.87593
7.29316
6.3711
6.76732
7.40645
8.78909
7.98906
7.93064
12.8272
7.66577
7.54827
7.52228
7.41625
6.86264
7.29621
6.37667
7.27905
7.61704
7.28109
7.72769
8.77049
8.03396
9.24111
8.59769
8.95557
9.24221
6.94258
8.57354
7.86458
11.1554
9.37866
9.24494
6.23382
7.48144
8.76282
7.50778
11.023
9.24982
7.2878
7.1192
7.60511
9.25711
10.0845
7.48318
5.33925
9.26929
7.77446
8.85172
9.15772
12.7568
8.75942
8.26244
9.28501
6.67269
7.85934
6.59672
7.42335
7.64415
9.30604
7.32783
9.56557
7.82125
10.6827
6.18132
9.33351
6.00708
7.27849
6.90554
8.7759
6.94016
8.05246
9.30236
9.36838
9.61092
11.8201
7.71977
7.22218
9.41225
7.39901
11.2066
6.14353
7.42221
8.82261
9.46715
7.74099
10.9289
11.3207
10.2714
9.53459
6.38023
7.46615
6.20172
8.5389
5.26162
6.86913
11.3785
8.89624
11.2985
9.61924
7.53979
6.67825
10.2051
7.01805
11.4489
10.2999
7.59822
8.46026
6.54921
9.72074
6.18893
7.39909
8.95251
10.6024
11.5347
8.28152
9.84739
7.60856
5.02188
7.61252
6.06708
7.71557
11.6417
8.48446
9.99574
6.47778
5.53333
10.7838
9.02812
7.13927
10.6528
7.86612
11.7767
10.1722
9.96601
5.98633
7.0148
7.77163
9.2892
11.0123
5.5545
11.95
7.36124
10.371
4.92196
7.45245
6.47441
5.41043
11.2299
9.60204
10.5945
8.79916
5.62261
8.21232
9.62508
12.1722
9.55394
9.81757
9.65065
6.2799
7.29956
9.67762
6.02147
10.8315
8.30857
9.70717
8.78228
12.4503
10.423
9.73844
11.0837
9.77216
6.47527
8.30166
8.54837
7.27041
9.80817
9.42922
9.84598
11.3335
8.90942
12.7801
5.97744
9.88632
9.416
7.53235
5.70365
4.59621
9.92787
9.859
11.5572
6.33022
9.97162
8.44636
13.1497
10.0162
11.7596
9.60396
10.0625
7.40873
6.55642
10.1081
11.1165
10.1577
13.5014
9.64523
10.2042
7.9693
7.73354
10.5421
10.2587
13.8785
10.3089
6.83221
12.9483
8.7869
10.3614
7.63857
10.4109
10.0516
7.78823
10.4838
6.33261
10.5568
8.165
10.564
6.30471
7.81903
10.5762
9.79433
14.7362
6.92175
9.41426
6.54665
7.22461
8.00429
10.1793
11.1636
15.0796
8.32319
10.0708
15.7568
8.37225
5.52282
10.439
11.4803
14.2095
7.98419
5.97288
9.21834
5.41531
16.6355
12.3114
8.35724
11.2869
11.8789
6.05528
5.11595
15.4458
10.4862
7.42719
16.8053
13.9498
12.1457
8.39942
16.7745
7.74205
16.63
12.1365
8.57243
8.33928
15.4664
12.3273
6.71498
6.98556
7.37483
8.22846
8.4686
6.62219
6.57485
5.74894
8.71692
4.71607
8.48389
3.74141
3.52926
3.94949
10.8891
4.52735
5.59565
4.60432
5.76825
16.3763
5.55531
6.55729
7.71277
12.0211
7.16648
6.65798
6.91806
7.19607
10.2893
6.89138
6.89846
8.01772
7.43984
10.704
12.4353
11.966
4.57333
10.2332
5.49354
6.2542
13.2814
7.10915
4.71963
4.96502
6.3898
5.22463
5.14071
5.89884
14.8618
7.15612
8.42254
14.3882
11.5048
15.6521
6.64139
3.87451
3.83458
4.31521
5.01303
5.70872
7.78553
7.33944
4.75071
3.47285
4.49398
6.1352
6.57424
6.71471
5.71992
5.27202
5.76295
7.05929
7.64511
8.14932
8.72185
9.04004
8.62577
11.9134
10.5224
9.74702
VECTORS Displacement float
0 0 0
0 0.00139143 0
0.00207482 0 0
0 0.00274028 0
0.0040935 0 0
0 0.00403919 0
0.0060119 0 0
0 0.00532414 0
0.0064906 0.0015288 0
0.00785461 0 0
0 0.00660387 0
0.00605984 0.0035815 0
0 0.0078922 0
0.00574972 0.00560102 0
0.0092863 0.00136495 0
0.00960846 0 0
0.00552172 0.00758769 0
0.011254 0 0
0.0118164 0.00117693 0
0.0119067 0.00238563 0
0.0127825 0 0
0.0118551 0.00303988 0
0.0116981 0.00375312 0
0.0127959 0.00222374 0
0.0114797 0.00449021 0
0.0112589 0.00522842 0
0.0110154 0.00595712 0
0.0141473 0 0
0.0136047 0.00205214 0
0.0140178 0.000931186 0
0.010778 0.00666336 0
0.0143652 0.00184879 0
0.0139957 0.00310217 0
0.013738 0.0040126 0
0.0153347 0 0
0.0150602 0.00162169 0
0.0134338 0.00495476 0
0.015159 0.00248221 0
0.0130073 0.00590637 0
0.0157686 0.000596615 0
0.0156861 0.00136425 0
0.0162721 0 0
0.0162313 0.00107204 0
0.0160354 0.00181978 0
0.0156185 0.00287427 0
0.0155845 0.00305975 0
0.015569 0.00325055 0
0.0155526 0.00344332 0
0.015931 0.0025093 0
0.0155274 0.00365909 0
0.0166846 0.000745417 0
0.0155185 0.00384528 0
0.0158203 0.00295719 0
0.015664 0.00347356 0
0.0154753 0.00406033 0
0.0156172 0.00403265 0
0.015724 0.00399538 0
0.0155918 0.00390122 0
0.0157137 0.00354118 0
0.0157798 0.00330297 0
0.0158307 0.00393695 0
0.0157587 0.00386263 0
0.0157006 0.00376607 0
0.0159202 0.00297719 0
0.0159144 0.00388486 0
0.0157635 0.00375433 0
0.0160501 0.0026521 0
0.0158218 0.00373781 0
0.0162042 0.00212989 0
0.0158226 0.00361122 0
0.0159339 0.00378001 0
0.0159103 0.00311878 0
0.0160155 0.00381462 0
0.0161609 0.00233805 0
0.0158983 0.00370786 0
0.0159075 0.00358291 0
0.0159662 0.00367262 0
0.0159368 0.00324563 0
0.0160912 0.0037463 0
0.0159238 0.00346227 0
0.0169275 0 0
0.0159577 0.00344735 0
0.0160496 0.0036136 0