# vtk DataFile Version 3.0
File generated from DClib
ASCII

DATASET UNSTRUCTURED_GRID
POINTS 922 float
50 0 0 
50 1.66667 0 
47.9167 0 0 
50 3.33333 0 
45.8333 0 0 
50 5 0 
43.75 0 0 
50 6.66667 0 
43 2 0 
41.6667 0 0 
50 8.33333 0 
43 4.66667 0 
50 10 0 
43 7.33333 0 
39.7917 2 0 
39.5833 0 0 
43 10 0 
37.5 0 0 
36.5833 2 0 
36 4 0 
35.4167 0 0 
36 5 0 
36 6 0 
34.875 4 0 
36 7 0 
36 8 0 
36 9 0 
33.3333 0 0 
33.75 4 0 
33.375 2 0 
36 10 0 
32.625 4 0 
33 6 0 
33 7.38776 0 
31.25 0 0 
31.5 4 0 
33 8.72989 0 
31.25 6 0 
33 10 0 
30.1667 2 0 
30.375 4 0 
29.1667 0 0 
29.25 4 0 
29.5 6 0 
30 8 0 
30 8.38776 0 
30 8.77551 0 
30 9.11765 0 
29.375 8 0 
30 9.45978 0 
28.125 4 0 
30 9.72989 0 
29.5436 8.77551 0 
29.7872 9.45978 0 
30 10 0 
29.9616 10.0384 0 
29.9232 10.0768 0 
29.8781 10 0 
29.7038 9.72989 0 
29.5732 9.45978 0 
29.8635 10.1365 0 
29.8013 10.0768 0 
29.7562 10 0 
29.3407 9.11765 0 
29.8038 10.1962 0 
29.7179 10.0384 0 
29.0879 8.77551 0 
29.6796 10.0768 0 
28.75 8 0 
29.5896 10 0 
29.682 10.1962 0 
29.3212 9.45978 0 
29.7137 10.2863 0 
28.8513 8.38776 0 
29.62 10.1365 0 
29.5133 10.0768 0 
29.5605 10.1962 0 
29.318 9.72989 0 
29.6237 10.3763 0 
29.423 10 0 
27.0833 0 0 
29.3851 10.0384 0 
29.4708 10.2863 0 
29.0681 9.45978 0 
29.5022 10.3763 0 
29.3471 10.0768 0 
29.3947 10.1962 0 
29.4922 10.5078 0 
27.75 6 0 
29.2882 10.1365 0 
29.2009 10 0 
29.3811 10.3763 0 
28.6181 8.77551 0 
26.9583 2 0 
29.2293 10.1962 0 
29.1257 10.0768 0 
29.3606 10.6394 0 
29.2162 10.3763 0 
28.6273 9.11765 0 
28.7679 9.45978 0 
29.1405 10.2863 0 
29.25 10.5078 0 
28.9787 10 0 
28.125 8 0 
28.8217 9.72989 0 
29.2395 10.6394 0 
28.9416 10.0384 0 
29.009 10.1962 0 
27 4 0 
29.0518 10.3763 0 
28.9045 10.0768 0 
29.119 10.6394 0 
28.8468 10.1365 0 
29.1744 10.8256 0 
28.4666 9.45978 0 
28.7892 10.1962 0 
28.69 10 0 
28.1489 8.77551 0 
28.9223 10.5078 0 
28.8333 10.3763 0 
28.9555 10.6394 0 
28.617 10.0768 0 
28.7024 10.2863 0 
28.9337 10.8256 0 
28.9882 11.0118 0 
28.7928 10.6394 0 
28.6156 10.3763 0 
28.5038 10.1962 0 
28.4012 10 0 
27.6992 8.38776 0 
28.8679 11.0118 0 
28.1088 9.45978 0 
28.3655 10.0384 0 
28.1935 9.72989 0 
27.5 8 0 
28.3298 10.0768 0 
28.5771 10.6394 0 
28.7485 11.0118 0 
28.489 10.5078 0 
27.8468 9.11765 0 
28.6098 10.8256 0 
28.2744 10.1365 0 
27.6621 8.77551 0 
28.3334 10.3763 0 
28.219 10.1962 0 
28.7333 11.2667 0 
28.5871 11.0118 0 
28.3626 10.6394 0 
28.0354 10 0 
28.1356 10.2863 0 
27.75 9.45978 0 
28.427 11.0118 0 
27.9662 10.0768 0 
28.0523 10.3763 0 
28.4949 11.2667 0 
28.184 10.8256 0 
28.0852 10.6394 0 
27.8587 10.1962 0 
28.2155 11.0118 0 
28.4783 11.5217 0 
27.9307 10.5078 0 
27.1759 8.77551 0 
25.875 4 0 
27.6697 10 0 
26.875 8 0 
27.6363 10.0384 0 
28.3594 11.5217 0 
27.6029 10.0768 0 
28.177 11.2667 0 
27.3262 9.45978 0 
27.4134 9.72989 0 
28.0057 11.0118 0 
27.6971 10.3763 0 
27.8094 10.6394 0 
28.2416 11.5217 0 
27.551 10.1365 0 
27.4992 10.1962 0 
26 6 0 
26.9863 9.11765 0 
28.0837 11.5217 0 
27.4211 10.2863 0 
27.7352 11.0118 0 
27.638 10.8256 0 
28.141 11.859 0 
27.2186 10 0 
27.9274 11.5217 0 
26.5417 8.38776 0 
27.3432 10.3763 0 
27.4616 10.6394 0 
26.6684 8.77551 0 
27.7621 11.2667 0 
26.9013 9.45978 0 
27.155 10.0768 0 
25 0 0 
26.25 8 0 
27.9066 11.859 0 
27.2294 10.5078 0 
27.467 11.0118 0 
27.7222 11.5217 0 
27.0563 10.1962 0 
27.1158 10.6394 0 
27.5191 11.5217 0 
26.7674 10 0 
26.9078 10.3763 0 
27.8036 12.1964 0 
26.7374 10.0384 0 
27.5976 11.859 0 
26.7074 10.0768 0 
27.1297 11.0118 0 
27.2334 11.2667 0 
26.1616 8.77551 0 
26.4044 9.45978 0 
27.6871 12.1964 0 
26.6608 10.1365 0 
26.9553 10.8256 0 
26.4658 9.72989 0 
27.2584 11.5217 0 
26.6142 10.1962 0 
27.5718 12.1964 0 
24.75 4 0 
26.544 10.2863 0 
26.6911 10.6394 0 
26.0333 9.11765 0 
25.625 8 0 
27.4193 12.1964 0 
26.7951 11.0118 0 
27.1983 11.859 0 
26.4737 10.3763 0 
27.0006 11.5217 0 
26.2261 10 0 
27.2684 12.1964 0 
26.3711 10.5078 0 
26.1706 10.0768 0 
25.9068 9.45978 0 
25.6301 8.77551 0 
27.3729 12.6271 0 
27.0723 12.1964 0 
26.5764 11.2667 0 
26.0842 10.1962 0 
26.2685 10.6394 0 
25.377 8.38776 0 
26.6777 11.5217 0 
26.3853 11.0118 0 
27.1446 12.6271 0 
26.8784 12.1964 0 
26.6935 11.859 0 
25.9539 10.3763 0 
26.1234 10.8256 0 
25 8 0 
25.6847 10 0 
26.3582 11.5217 0 
23.75 2 0 
25.6594 10.0384 0 
26.6314 12.1964 0 
25.634 10.0768 0 
26.8487 12.6271 0 
25.0992 8.77551 0 
25.3333 9.45978 0 
25.9784 11.0118 0 
25.5945 10.1365 0 
24.25 6 0 
25.7632 10.6394 0 
25.5549 10.1962 0 
26.9422 13.0578 0 
25.3422 9.72989 0 
25.4952 10.2863 0 
26.3874 12.1964 0 
26.8294 13.0578 0 
24.9782 9.11765 0 
25.968 11.5217 0 
25.4353 10.3763 0 
23.625 4 0 
26.7177 13.0578 0 
26.4709 12.6271 0 
26.0703 11.859 0 
25.7799 11.2667 0 
25.3477 10.5078 0 
26.5729 13.0578 0 
24.375 8 0 
26.0835 12.1964 0 
25.4927 11.0118 0 
25.0532 10 0 
24.5409 8.77551 0 
25.2597 10.6394 0 
26.4296 13.0578 0 
25.0081 10.0768 0 
24.7595 9.45978 0 
25.5816 11.5217 0 
24.9377 10.1962 0 
22.9167 0 0 
26.246 13.0578 0 
25.7833 12.1964 0 
25.1349 10.8256 0 
25.9977 12.6271 0 
24.2034 8.38776 0 
26.412 13.588 0 
24.831 10.3763 0 
26.0644 13.0578 0 
25.0097 11.0118 0 
25.3193 11.859 0 
26.1925 13.588 0 
25.1215 11.5217 0 
25.4183 12.1964 0 
23.75 8 0 
23.983 8.77551 0 
24.4216 10 0 
25.8356 13.0578 0 
24.6735 10.6394 0 
24.402 10.0384 0 
24.3824 10.0768 0 
24.1101 9.45978 0 
24.8375 11.2667 0 
24.3517 10.1365 0 
24.3209 10.1962 0 
25.4179 12.6271 0 
25.9145 13.588 0 
25.6093 13.0578 0 
24.2742 10.2863 0 
24.0443 9.72989 0 
23.8155 9.11765 0 
25.0573 12.1964 0 
24.2272 10.3763 0 
22.5 4 0 
24.4478 11.0118 0 
24.6646 11.5217 0 
24.158 10.5078 0 
25.3298 13.0578 0 
25.8819 14.1181 0 
25.5653 13.588 0 
24.0881 10.6394 0 
23.3961 8.77551 0 
25.7745 14.1181 0 
23.125 8 0 
23.7058 10 0 
25.6676 14.1181 0 
22.5 6 0 
24.6289 12.1964 0 
25.0535 13.0578 0 
23.9883 10.8256 0 
23.461 9.45978 0 
24.4349 11.859 0 
23.6731 10.0768 0 
25.5335 14.1181 0 
23.019 8.38776 0 
24.7229 12.6271 0 
23.6216 10.1962 0 
24.1341 11.5217 0 
25.1327 13.588 0 
23.8872 11.0118 0 
25.4 14.1181 0 
23.5426 10.3763 0 
24.7194 13.0578 0 
25.233 14.1181 0 
24.204 12.1964 0 
23.7472 11.2667 0 
22.8093 8.77551 0 
23.4243 10.6394 0 
22.5 8 0 
25.0671 14.1181 0 
24.3887 13.0578 0 
23.6052 11.5217 0 
24.6061 13.588 0 
22.9901 10 0 
25.2539 14.7461 0 
22.9769 10.0384 0 
24.8614 14.1181 0 
22.7421 9.45978 0 
22.9637 10.0768 0 
22.9429 10.1365 0 
21.375 4 0 
23.2515 11.0118 0 
22.5457 9.11765 0 
22.922 10.1962 0 
23.7117 12.1964 0 
25.046 14.7461 0 
23.9078 12.6271 0 
22.8899 10.2863 0 
24.6571 14.1181 0 
22.8574 10.3763 0 
22.5862 9.72989 0 
23.998 13.0578 0 
23.4145 11.859 0 
22.8089 10.5078 0 
22.1933 8.77551 0 
20.8333 0 0 
24.791 14.7461 0 
24.4076 14.1181 0 
21.875 8 0 
22.7595 10.6394 0 
23.0055 11.5217 0 
23.9777 13.588 0 
22.6878 10.8256 0 
21.822 8.38776 0 
23.2211 12.1964 0 
23.6104 13.0578 0 
24.1597 14.1181 0 
24.4776 14.7461 0 
22.6143 11.0118 0 
20.5417 2 0 
22.0242 9.45978 0 
22.2027 10 0 
22.1829 10.0768 0 
22.1513 10.1962 0 
24.6259 15.3741 0 
23.8624 14.1181 0 
22.5107 11.2667 0 
21.5771 8.77551 0 
24.5253 15.3741 0 
22.1017 10.3763 0 
24.0946 14.7461 0 
22.9704 12.6271 0 
24.4245 15.3741 0 
21.25 8 0 
23.1626 13.0578 0 
20.75 6 0 
22.404 11.5217 0 
22.0253 10.6394 0 
22.6655 12.1964 0 
24.3035 15.3741 0 
23.5669 14.1181 0 
23.2428 13.588 0 
20.25 4 0 
24.1821 15.3741 0 
22.2583 11.859 0 
21.9095 11.0118 0 
24.0354 15.3741 0 
23.6316 14.7461 0 
21.1769 9.11765 0 
22.7163 13.0578 0 
21.2482 9.45978 0 
23.2196 14.1181 0 
21.4154 10 0 
23.8883 15.3741 0 
21.4085 10.0384 0 
21.4016 10.0768 0 
21.3905 10.1365 0 
20.9332 8.77551 0 
21.3792 10.1962 0 
21.3616 10.2863 0 
22.108 12.1964 0 
20.625 8 0 
23.7106 15.3741 0 
21.3434 10.3763 0 
21.7377 11.5217 0 
21.3158 10.5078 0 
20.6106 8.38776 0 
22.874 14.1181 0 
20.9961 9.72989 0 
23.5323 15.3741 0 
21.2869 10.6394 0 
23.9109 16.0891 0 
23.0804 14.7461 0 
22.2122 13.0578 0 
21.2441 10.8256 0 
22.3997 13.588 0 
23.3184 15.3741 0 
21.91 12.6271 0 
23.7168 16.0891 0 
21.1989 11.0118 0 
22.4765 14.1181 0 
23.1037 15.3741 0 
20.2886 8.77551 0 
21.1336 11.2667 0 
20.4742 9.45978 0 
21.4902 12.1964 0 
23.4886 16.0891 0 
20 8 0 
20.5755 10 0 
20.5672 10.0768 0 
19.125 4 0 
21.0644 11.5217 0 
21.7064 13.0578 0 
20.5533 10.1962 0 
22.8492 15.3741 0 
20.5305 10.3763 0 
23.217 16.0891 0 
18.75 0 0 
22.4362 14.7461 0 
22.0799 14.1181 0 
20.9674 11.859 0 
20.493 10.6394 0 
22.5939 15.3741 0 
22.8917 16.0891 0 
20.4322 11.0118 0 
19 6 0 
20.8648 12.1964 0 
19.7252 9.11765 0 
21.4494 13.588 0 
19.6198 8.77551 0 
23.1959 16.8041 0 
19.375 8 0 
21.1471 13.0578 0 
22.2963 15.3741 0 
21.634 14.1181 0 
23.1028 16.8041 0 
19.3826 8.38776 0 
19.6592 9.45978 0 
23.0087 16.8041 0 
20.3354 11.5217 0 
22.5023 16.0891 0 
19.7357 10 0 
20.7266 12.6271 0 
22.9022 16.8041 0 
19.7337 10.0384 0 
19.7316 10.0768 0 
21.6986 14.7461 0 
19.7282 10.1365 0 
21.9981 15.3741 0 
19.7246 10.1962 0 
22.7943 16.8041 0 
19.7187 10.2863 0 
19.7123 10.3763 0 
19.7021 10.5078 0 
22.6703 16.8041 0 
21.1873 14.1181 0 
19.691 10.6394 0 
20.5814 13.0578 0 
22.5445 16.8041 0 
19.315 9.72989 0 
19.6735 10.8256 0 
20.1866 12.1964 0 
21.6575 15.3741 0 
18 4 0 
18.75 8 0 
22.04 16.0891 0 
18.9498 8.77551 0 
19.6542 11.0118 0 
22.3982 16.8041 0 
19.6249 11.2667 0 
22.2495 16.8041 0 
19.5925 11.5217 0 
20.6965 14.1181 0 
21.3165 15.3741 0 
18.8474 9.45978 0 
20.395 13.588 0 
22.076 16.8041 0 
20.8727 14.7461 0 
19.5453 11.859 0 
18.8678 10 0 
22.415 17.585 0 
18.8667 10.0768 0 
17.3333 2 0 
21.4999 16.0891 0 
21.8995 16.8041 0 
19.969 13.0578 0 
18.8645 10.1962 0 
18.8602 10.3763 0 
19.4934 12.1964 0 
18.125 8 0 
22.2346 17.585 0 
20.9365 15.3741 0 
18.8517 10.6394 0 
21.6943 16.8041 0 
18.261 8.77551 0 
18.1362 8.38776 0 
20.2023 14.1181 0 
22.0344 17.585 0 
18.8358 11.0118 0 
18.2149 9.11765 0 
19.4214 12.6271 0 
21.4858 16.8041 0 
20.5569 15.3741 0 
21.8073 17.585 0 
18.807 11.5217 0 
20.8831 16.0891 0 
17.25 6 0 
21.246 16.8041 0 
19.3437 13.0578 0 
16.6667 0 0 
18.0163 9.45978 0 
16.875 4 0 
[...]
POINT_DATA 922
SCALARS scalars float 1
LOOKUP_TABLE default
0
0
0.0202615
0
0.0398663
0
0.0584472
0
0.0631175
0.0762427
0
0.059226
0
0.0569454
0.0900775
0.0930807
0.0540152
0.108771
0.114219
0.115578
0.123221
0.115336
0.114219
0.123962
0.112522
0.11098
0.108757
0.13597
0.131641
0.134983
0.105758
0.138934
0.136659
0.135395
0.146892
0.145515
0.133235
0.148052
0.129533
0.151094
0.151338
0.155304
0.156309
0.156208
0.155037
0.155471
0.156214
0.157238
0.158004
0.158405
0.16032
0.159302
0.158598
0.15963
0.159591
0.325545
0.462996
0.160924
0.161104
0.160436
0.482979
0.391639
0.162249
0.160694
0.48085
0.240311
0.160651
0.325833
0.16043
0.163225
0.467748
0.161334
0.477946
0.160778
0.389556
0.252957
0.438343
0.162656
0.470356
0.163743
0.160909
0.184324
0.457977
0.162181
0.465109
0.209623
0.378664
0.464115
0.161826
0.259249
0.164261
0.461962
0.162523
0.160902
0.31271
0.181659
0.455587
0.443929
0.1632
0.163174
0.365103
0.457085
0.16458
0.162653
0.163804
0.452786
0.16643
0.241019
0.163269
0.408151
0.169708
0.449711
0.182022
0.44619
0.164056
0.198518
0.164883
0.163965
0.431757
0.342137
0.445546
0.166543
0.234193
0.442407
0.43609
0.441214
0.274377
0.176311
0.16507
0.164417
0.434955
0.164855
0.165329
0.165053
0.164381
0.165618
0.415133
0.43416
0.322441
0.165094
0.437667
0.166393
0.165024
0.213249
0.167731
0.42624
0.432844
0.366624
0.165558
0.173122
0.16548
0.431208
0.165766
0.181391
0.424345
0.39954
0.2936
0.166508
0.426686
0.416583
0.20364
0.165737
0.164987
0.165898
0.165601
0.165987
0.415973
0.166065
0.422765
0.165965
0.166012
0.417697
0.170291
0.231476
0.415415
0.166154
0.166247
0.164575
0.16613
0.414813
0.166391
0.378925
0.273768
0.406238
0.166143
0.414474
0.16602
0.166619
0.189127
0.166136
0.417641
0.166192
0.166129
0.16305
0.166215
0.40533
0.167976
0.317795
0.413797
0.166115
0.170517
0.412714
0.166139
0.166125
0.396189
0.166116
0.404497
0.16609
0.244557
0.357879
0.166195
0.166184
0.395954
0.166051
0.180634
0.166141
0.403543
0.165999
0.395749
0.165425
0.165914
0.166739
0.166128
0.166266
0.395468
0.195588
0.403828
0.165787
0.384799
0.16581
0.395221
0.165597
0.165693
0.16588
0.16592
0.384744
0.394942
0.227713
0.16547
0.165379
0.165805
0.332732
0.173276
0.384396
0.394702
0.393149
0.165061
0.165048
0.165781
0.165179
0.266239
0.162529
0.165093
0.393799
0.165002
0.384052
0.165321
0.165187
0.164985
0.164861
0.164194
0.164324
0.164713
0.373546
0.164957
0.164465
0.392403
0.373464
0.164912
0.204859
0.164206
0.164457
0.373394
0.38371
0.306685
0.167477
0.16379
0.373329
0.164822
0.375038
0.163302
0.164064
0.164375
0.16333
0.373259
0.163854
0.164164
0.172374
0.163498
0.16139
0.373152
0.340291
0.162676
0.382701
0.164002
0.360514
0.162911
0.372995
0.161872
0.190449
0.360421
0.163165
0.277488
0.16348
0.163117
0.162583
0.372622
0.161925
0.162457
0.162328
0.162617
0.160692
0.16213
0.161925
0.36165
0.36029
0.372251
0.161603
0.162024
0.16228
0.21694
0.161265
0.162148
0.1602
0.159494
0.160746
0.370836
0.347443
0.360039
0.160193
0.161489
0.347446
0.161763
0.160476
0.347437
0.160606
0.17578
0.367438
0.159319
0.160696
0.158239
0.160209
0.347406
0.160849
0.252083
0.159766
0.157446
0.359554
0.158385
0.347356
0.159052
0.337825
0.347267
0.157995
0.15701
0.159562
0.157902
0.159771
0.347151
0.28776
0.155482
0.357299
0.157959
0.332112
0.157813
0.346967
0.158147
0.157665
0.157439
0.158566
0.156098
0.158023
0.157207
0.153887
0.332092
0.163915
0.156846
0.346725
0.156474
0.156972
0.222317
0.153405
0.155907
0.157237
0.155792
0.332008
0.346118
0.157461
0.155312
0.153235
0.316883
0.154433
0.156481
0.151126
0.174868
0.345558
0.331814
0.153499
0.154646
0.155207
0.154719
0.154438
0.153979
0.316593
0.341006
0.152127
0.15463
0.316591
0.15325
0.331433
0.148117
0.31658
0.154829
0.153622
0.15412
0.150642
0.152106
0.148605
0.316556
0.330287
0.198137
0.15396
0.316517
0.148464
0.150305
0.31645
0.330727
0.152045
0.145335
0.151621
0.286521
0.151078
0.316361
0.150936
0.150792
0.15057
0.151623
0.150344
0.149996
0.146092
0.151892
0.316218
0.149637
0.147481
0.149095
0.150965
0.228252
0.149683
0.316044
0.14853
0.298734
0.32461
0.142237
0.147688
0.14375
0.315795
0.142906
0.298716
0.146799
0.173878
0.315487
0.148348
0.1455
0.14768
0.1432
0.298639
0.148645
0.146769
0.146505
0.148381
0.144111
0.139576
0.14608
0.314332
0.145408
0.298471
0.146586
0.254544
0.143836
0.14216
0.144356
0.313433
0.298167
0.142728
0.145241
0.140056
0.144423
0.135401
0.144697
0.280522
0.145128
0.136867
0.300125
0.135091
0.280515
0.144359
0.143183
0.2805
0.140235
0.297647
0.142114
0.137145
0.280466
0.141991
0.141866
0.151118
0.141669
0.272348
0.141467
0.28042
0.141157
0.140838
0.140356
0.280352
0.131184
0.139857
0.134004
0.280264
0.140423
0.139121
0.136438
0.215656
0.141972
0.14137
0.296406
0.140796
0.138348
0.280136
0.137234
0.279974
0.136052
0.128351
0.16427
0.1384
0.12996
0.279746
0.126142
0.134374
0.136992
0.260232
0.136755
0.138067
0.277411
0.279475
0.13082
0.136378
0.13579
0.132578
0.137407
0.260205
0.134013
0.134884
0.279057
0.136558
0.136746
0.12576
0.260146
0.133503
0.135381
0.130118
0.278492
0.121286
0.260026
0.131418
0.178075
0.134546
0.276475
0.127473
0.134459
0.133241
0.134963
0.259811
0.123052
0.120672
0.133244
0.270654
0.131587
0.131474
0.128323
0.131361
0.131182
0.117891
0.131003
0.132102
0.130728
0.123982
0.130449
0.130032
0.259407
0.129606
0.234088
0.128983
0.240434
0.129759
0.128343
0.240386
0.117885
0.129389
0.128882
0.127433
0.123816
0.240319
0.120332
0.115612
0.190696
0.128175
0.126487
0.240215
0.258447
0.128956
0.127176
0.240103
0.125177
0.127846
0.12828
0.239962
0.127487
0.127121
0.125759
0.1238
0.144891
0.126696
0.239815
0.127389
0.126256
0.115896
0.11339
0.125728
0.23964
0.253127
0.12194
0.125185
0.123764
0.117503
0.239458
0.127236
0.124514
0.109702
0.115807
0.125254
0.123822
0.11996
0.239237
0.122957
0.12097
0.124068
0.124531
0.238985
0.111335
0.122063
0.117366
0.195987
0.107482
0.238567
0.122695
0.120937
0.219632
0.11977
0.23796
0.122466
0.121107
0.114587
0.117087
0.122661
0.121695
0.219629
0.10397
0.118293
0.236197
0.10935
0.120892
0.119246
0.106114
0.219605
0.116747
0.115455
0.11999
0.11109
0.233219
0.120169
0.11903
0.102342
0.117041
0.219571
0.114807
0.215066
0.120183
0.119148
0.118003
0.111807
0.107454
0.219499
0.116925
0.192688
0.112764
0.119105
0.114389
0.101049
0.117326
0.115768
0.0989602
0.219243
0.15092
0.114568
0.110257
0.103198
0.115136
0.0998901
0.113268
0.115732
0.218166
0.111143
0.116181
0.116075
0.105
0.107649
0.114799
0.11192
0.202899
0.102644
0.112671
0.113884
0.0957423
0.202896
0.212914
0.0989034
0.110454
0.202899
0.112796
0.104562
0.2029
0.107182
0.0952597
0.108923
0.202899
0.111649
0.184217
0.109978
0.202877
0.0925537
0.202846
0.107248
0.110435
0.094246
0.101423
0.202763
0.0970031
0.202624
0.0912296
0.109168
0.120183
0.10551
0.202295
0.10706
0.102479
0.110551
0.110011
0.201803
0.107839
0.0904719
0.103621
0.200779
0.0978933
0.0958385
0.199217
0.089933
0.106469
0.195218
0.1017
0.10389
0.188702
0.105045
0.177543
0.0888136
0.0943685
0.165763
0.0971308
0.0996316
0.103594
0.144625
0.0867015
0.122974
0.100513
0.0885133
0.102076
0.109943
0.097548
0.0996316
0.0906179
0.104499
0.0935423
0.100548
0.0896063
0.0953313
0.0872583
0.098989
0.0970228
0.0857263
0.0913198
0.0868854
0.101723
0.0931153
0.0974204
0.0958398
0.0934379
0.0907841
0.0816424
0.0831082
0.0942434
0.0884783
0.0852211
0.0926476
0.0965551
0.0897791
0.0795938
0.0860674
0.0910381
0.0948377
0.0894362
0.0930485
0.0836482
0.0860632
0.0926448
0.0878097
0.0790047
0.0910832
0.0912518
0.0811335
0.0861773
0.088984
0.0822447
0.0845087
0.0785315
0.0879662
0.0828436
0.0868284
0.0811392
0.0781885
0.084735
0.0834513
0.0794363
0.0777012
0.0828382
0.0810149
0.079144
0.0740141
0.0738032
0.0733438
0.0726873
0.0719993
0.0771591
0.0712777
0.0708278
0.0705281
0.0697492
0.0689575
0.0750142
0.0681556
0.0673681
0.0650238
0.0666026
0.0726677
0.065902
0.0653027
0.0648319
0.070094
0.0643526
0.0638798
0.0633516
0.0627998
0.053413
0.0622236
0.0616165
0.0609848
0.0603163
0.0596276
0.058895
0.0581583
0.0381304
0.0573801
0.0374478
0.036811
0.0357839
0.0360854
0.0353107
0.0345451
0.0338696
0.0333765
0.0330451
0.0327214
0.0179159
0.0323488
0.0319083
0.0313718
0.0306964
0
0
0
0
0
0
0
0
0
0
0
0
0
0
0
0
0
0
0
0
0
0
0
0
0
0
0
VECTORS Displacement float
0 0 0
0 0.0136769 0
0.0202615 0 0
0 0.0269393 0
0.0398663 0 0
0 0.0397847 0
0.0584472 0 0
0 0.0525605 0
0.0631175 0.0148879 0
0.0762427 0 0
0 0.069029 0
0.059226 0.0349296 0
0 0.0963016 0
0.0569454 0.0547189 0
0.0900775 0.0131748 0
0.0930807 0 0
0.0540152 0.0897769 0
0.108771 0 0
0.114219 0.0112311 0
0.115578 0.0227486 0
0.123221 0 0
0.115336 0.0290449 0
0.114219 0.0359355 0
0.123962 0.0211088 0
0.112522 0.0430779 0
0.11098 0.0502772 0
0.108757 0.0617443 0
0.13597 0 0
0.131641 0.0193623 0
0.134983 0.008691 0
0.105758 0.0784426 0
0.138934 0.0172596 0
0.136659 0.0295144 0
0.135395 0.0385862 0
0.146892 0 0
0.145515 0.0149216 0
0.133235 0.0512659 0
0.148052 0.0230115 0
0.129533 0.0759648 0
0.151094 0.00530557 0
0.151338 0.012303 0
0.155304 0 0
0.156309 0.00936057 0
0.156208 0.0161364 0
0.155037 0.0265589 0
0.155471 0.0283757 0
0.156214 0.0302791 0
0.157238 0.0336322 0
0.158004 0.0225728 0
0.158405 0.0401977 0
0.16032 0.00611466 0
0.159302 0.0467146 0
0.158598 0.0268934 0
0.15963 0.0351705 0
0.159591 0.0547912 0
0.325545 0.143587 0
0.462996 0.202783 0
0.160924 0.0514493 0
0.161104 0.0378413 0
0.160436 0.0314225 0
0.482979 0.191188 0
0.391639 0.158039 0
0.162249 0.0473841 0
0.160694 0.0270807 0
0.48085 0.179568 0
0.240311 0.0862166 0
0.160651 0.0234285 0
0.325833 0.118902 0
0.16043 0.0183716 0
0.163225 0.0409383 0
0.467748 0.159413 0
0.161334 0.0283975 0
0.477946 0.169341 0
0.160778 0.0203264 0
0.389556 0.128757 0
0.252957 0.0776962 0
0.438343 0.135719 0
0.162656 0.0305938 0
0.470356 0.155903 0
0.163743 0.0359372 0
0.160909 0 0
0.184324 0.0455795 0
0.457977 0.128016 0
0.162181 0.0257493 0
0.465109 0.13578 0
0.209623 0.0548247 0
0.378664 0.107655 0
0.464115 0.138845 0
0.161826 0.0080722 0
0.259249 0.0697426 0
0.164261 0.0313967 0
0.461962 0.120365 0
0.162523 0.0198414 0
0.160902 0.00080426 0
0.31271 0.0818469 0
0.181659 0.0371987 0
0.455587 0.123667 0
0.443929 0.105426 0
0.1632 0.0208716 0
0.163174 0.0230014 0
0.365103 0.0851768 0
0.457085 0.109958 0
0.16458 0.0277342 0
0.162653 0.0141229 0
0.163804 0.0244761 0
0.452786 0.110139 0
0.16643 0.0282502 0
0.241019 0.0515019 0
0.163269 0.00246883 0
0.408151 0.0876313 0
0.169708 0.029301 0
0.449711 0.098893 0
0.182022 0.0334543 0
0.44619 0.106553 0
0.164056 0.0202528 0
0.198518 0.0378338 0
0.164883 0.0241286 0
0.163965 0.0160842 0
0.431757 0.0808619 0
0.342137 0.0677827 0
0.445546 0.0858291 0
0.166543 0.0240972 0
0.234193 0.0458962 0
0.442407 0.0858523 0
0.43609 0.0913282 0
0.441214 0.0756124 0
0.274377 0.0516066 0
0.176311 0.0255149 0
0.16507 0.0206415 0
0.164417 0.0117939 0
0.434955 0.0821549 0
0.164855 0.016934 0
0.165329 0.0203742 0
0.165053 0.0181214 0
0.164381 0.00961614 0
0.165618 0.0201113 0
0.415133 0.066193 0
0.43416 0.0745805 0
0.322441 0.0526466 0
0.165094 0.0140577 0
0.437667 0.0671466 0
0.166393 0.0198397 0
0.165024 0.012014 0
0.213249 0.0299241 0
0.167731 0.0197758 0
0.42624 0.0753138 0
0.432844 0.0659748 0
0.366624 0.0526965 0
0.165558 0.0169185 0
0.173122 0.0206988 0
0.16548 0.0135547 0
0.431208 0.0584247 0
0.165766 0.0163634 0
0.181391 0.0220163 0
0.424345 0.0617763 0
0.39954 0.0458427 0
0.2936 0.0367404 0
0.166508 0.0155955 0
0.426686 0.0493641 0
0.416583 0.061639 0
0.20364 0.0257405 0
0.165737 0.00781325 0
0.164987 -0.00142659 0
0.165898 0.0131217 0
0.165601 0.00486845 0
0.165987 0.0127818 0
0.415973 0.0557308 0
0.166065 0.0124322 0
0.422765 0.0477373 0
0.165965 0.00949472 0
0.166012 0.0104188 0
0.417697 0.0414836 0
0.170291 0.0146652 0
0.231476 0.027887 0
0.415415 0.0504372 0
0.166154 0.0118717 0
0.166247 0.0112966 0
0.164575 -0.00127687 0
0.16613 0.00620076 0
0.414813 0.0439996 0
0.166391 0.0104203 0
0.378925 0.0354792 0
0.273768 0.0279038 0
0.406238 0.0470742 0
0.166143 0.00847211 0
0.414474 0.0382089 0
0.16602 0.00229017 0
0.166619 0.00955358 0
0.189127 0.0135661 0
0.166136 0.00332763 0
0.417641 0.0330715 0
0.166192 0.00535702 0
0.166129 0.00779208 0
0.16305 0 0
0.166215 -5.11432e-05 0
0.40533 0.037553 0
0.167976 0.00852249 0
0.317795 0.0253872 0
0.413797 0.0312487 0
0.166115 0.00672116 0
0.170517 0.00772882 0
0.412714 0.0248897 0
0.166139 0.00375623 0
0.166125 0.00509386 0
0.396189 0.034139 0
0.166116 0.00340792 0
0.404497 0.0269232 0
0.16609 0.00305701 0
0.244557 0.0115183 0
0.357879 0.0164879 0
0.166195 -0.00123301 0
0.166184 0.000478489 0
0.395954 0.0299043 0
0.166051 0.00250249 0
0.180634 0.00778709 0
0.166141 0.000847916 0
0.403543 0.0178007 0
0.165999 0.00193795 0
0.395749 0.0259753 0
0.165425 -0.00569581 0
0.165914 0.00105634 0
0.166739 0.0027061 0
0.166128 -0.00276783 0
0.166266 -0.00509096 0
0.395468 0.021077 0
0.195588 0.00724955 0
0.403828 0.0147808 0
0.165787 0.000148183 0
0.384799 0.0105546 0
0.16581 -0.00193188 0
0.395221 0.0164453 0
0.165597 -0.00121824 0
0.165693 -0.00262524 0
0.16588 -0.00443583 0
0.16592 -0.00605721 0
0.384744 0.0198244 0
0.394942 0.010673 0
0.227713 0.00640058 0
0.16547 -0.00373066 0
0.165379 -0.00264087 0
0.165805 -0.00769641 0
0.332732 0.00685352 0
0.173276 -0.00119041 0
0.384396 0.0125687 0
0.394702 0.00513491 0
0.393149 0.000723881 0
0.165061 -0.00545436 0
0.165048 -0.00472567 0
0.165781 -0.0101946 0
0.165179 -0.00759799 0
0.266239 0.00184675 0
0.162529 -0.00485196 0
0.165093 -0.00793955 0
0.393799 -0.00162304 0
0.165002 -0.00828422 0
0.384052 0.0039156 0
0.165321 -0.0108851 0
0.165187 -0.010092 0
0.164985 -0.00677359 0
0.164861 -0.00882394 0
0.164194 -0.0116668 0
0.164324 -0.00808746 0
0.164713 -0.00936983 0
0.373546 0.00654762 0
0.164957 -0.0105748 0
0.164465 -0.0102057 0
0.392403 -0.00781696 0
0.373464 0.00320945 0
0.164912 -0.0127603 0
0.204859 -0.0089318 0
0.164206 -0.011053 0
0.164457 -0.0100433 0
0.373394 9.12732e-07 0
0.38371 -0.00648812 0
0.306685 -0.00949391 0
0.167477 -0.00933447 0
0.16379 -0.0123159 0
0.373329 -0.00404135 0
0.164822 -0.0153378 0
0.375038 -0.0132301 0
0.163302 -0.0118599 0
0.164064 -0.014175 0
0.164375 -0.0159353 0
0.16333 -0.0136028 0
0.373259 -0.0079658 0
0.163854 -0.0148432 0
0.164164 -0.0157073 0
0.172374 -0.0120289 0
0.163498 -0.0159021 0
0.16139 0 0
0.373152 -0.012891 0
0.340291 -0.0193769 0
0.162676 -0.0155074 0
0.382701 -0.0186387 0
0.164002 -0.0178239 0
0.360514 -0.00853773 0
0.162911 -0.0175429 0
0.372995 -0.0176768 0
0.161872 -0.0175018 0
0.190449 -0.0150188 0
0.360421 -0.0146145 0
0.163165 -0.0174545 0
0.277488 -0.021304 0
0.16348 -0.0204258 0
0.163117 -0.020926 0
0.162583 -0.0206429 0
0.372622 -0.0235802 0
0.161925 -0.0200373 0
0.162457 -0.0209658 0
0.162328 -0.0212909 0
0.162617 -0.0219775 0
0.160692 -0.0203284 0
0.16213 -0.0218002 0
0.161925 -0.0223153 0
0.36165 -0.0324325 0
0.36029 -0.0220702 0
0.372251 -0.0294005 0
0.161603 -0.023102 0
0.162024 -0.0235187 0
0.16228 -0.0235759 0
0.21694 -0.021051 0
0.161265 -0.0239021 0
0.162148 -0.0144712 0
0.1602 -0.0237646 0
0.159494 -0.0232637 0
0.160746 -0.0250922 0
0.370836 -0.0363568 0
0.347443 -0.0231267 0
0.360039 -0.0312181 0
0.160193 -0.0263097 0
0.161489 -0.0260845 0
0.347446 -0.0260142 0
0.161763 -0.0254596 0
0.160476 -0.0278407 0
0.347437 -0.0288671 0
0.160606 -0.0222758 0
0.17578 -0.027711 0
0.367438 -0.0424916 0
0.159319 -0.0280721 0
0.160696 -0.0281099 0
0.158239 -0.027386 0
0.160209 -0.0284593 0
0.347406 -0.0324198 0
0.160849 -0.0277932 0
0.252083 -0.0327941 0
0.159766 -0.0294376 0
0.157446 -0.0291506 0
0.359554 -0.0422981 0
0.158385 -0.0298627 0
0.347356 -0.0359285 0
0.159052 -0.0309507 0
0.337825 -0.0444145 0
0.347267 -0.0402789 0
0.157995 -0.0313879 0
0.15701 -0.0323568 0
0.159562 -0.0311222 0
0.157902 -0.0332409 0
0.159771 -0.0303533 0
0.347151 -0.0445659 0
0.28776 -0.0469084 0
0.155482 -0.0349062 0
0.357299 -0.0549381 0
0.157959 -0.0347967 0
0.332112 -0.0399615 0
0.157813 -0.0350931 0
0.346967 -0.0498293 0
0.158147 -0.034705 0
0.157665 -0.0353914 0
0.157439 -0.0358585 0
0.158566 -0.0187553 0
0.156098 -0.0366176 0
0.158023 -0.0348846 0
0.157207 -0.0363299 0
0.153887 -0.0363389 0
0.332092 -0.0454713 0
0.163915 -0.0365818 0
0.156846 -0.037049 0
0.346725 -0.0549829 0
0.156474 -0.0377775 0
0.156972 -0.0373489 0
0.222317 -0.0469289 0
0.153405 -0.0384121 0
0.155907 -0.0388583 0
0.157237 -0.0362505 0
0.155792 0 0
0.332008 -0.0521517 0
0.346118 -0.0611222 0
0.157461 -0.0350596 0
0.155312 -0.0399575 0
0.153235 -0.041483 0
0.316883 -0.0652081 0
0.154433 -0.0415469 0
0.156481 -0.0373367 0
0.151126 -0.0421225 0
0.174868 -0.0437657 0
0.345558 -0.067231 0
0.331814 -0.0602453 0
0.153499 -0.043178 0
0.154646 -0.0109346 0
0.155207 -0.0410193 0
0.154719 -0.0421624 0
0.154438 -0.0427271 0
0.153979 -0.0436175 0
0.316593 -0.0566516 0
0.341006 -0.0736777 0
0.152127 -0.0454747 0
0.15463 -0.0411794 0
0.316591 -0.0593052 0
0.15325 -0.0449895 0
0.331433 -0.0699629 0
0.148117 -0.0470715 0
0.31658 -0.0619525 0
0.154829 -0.0395814 0
0.153622 -0.0475426 0
0.15412 -0.0318989 0
0.150642 -0.047844 0
0.152106 -0.0470557 0
0.148605 -0.0483572 0
0.316556 -0.06512 0
0.330287 -0.0787585 0
0.198137 -0.0547724 0
0.15396 -0.0227325 0
0.316517 -0.068277 0
0.148464 -0.0510404 0
0.150305 -0.0500984 0
0.31645 -0.0720723 0
0.330727 -0.0815051 0
0.152045 -0.046147 0
0.145335 -0.0519817 0
0.151621 -0.0474864 0
0.286521 -0.0751767 0
0.151078 -0.0490842 0
0.316361 -0.0758532 0
0.150936 -0.0493556 0
0.150792 -0.0496283 0
0.15057 -0.0500554 0
0.151623 -0.046076 0
0.150344 -0.0504857 0
0.149996 -0.0511408 0
0.146092 -0.0542661 0
0.151892 -0.043831 0
0.316218 -0.0803851 0
0.149637 -0.0518032 0
0.147481 -0.0544653 0
0.149095 -0.0527842 0
0.150965 -0.0461791 0
0.228252 -0.0705606 0
0.149683 -0.0510379 0
0.316044 -0.0849012 0
0.14853 -0.0537807 0
0.298734 -0.075552 0
0.32461 -0.0937874 0
0.142237 -0.0573455 0
0.147688 -0.055215 0
0.14375 -0.0585018 0
0.315795 -0.0902808 0
0.142906 -0.058437 0
0.298716 -0.080667 0
0.146799 -0.0566749 0
0.173878 -0.0682002 0
0.315487 -0.0956227 0
0.148348 -0.0506812 0
0.1455 -0.058711 0
0.14768 -0.0534815 0
0.1432 -0.0604789 0
0.298639 -0.0866246 0
0.148645 -0.0478281 0
0.146769 -0.0559679 0
0.146505 -0.0564949 0
0.148381 -0.0261898 0
0.144111 -0.0607807 0
0.139576 -0.0626807 0
0.14608 -0.0573215 0
0.314332 -0.101638 0
0.145408 -0.0585866 0
0.298471 -0.0936412 0
0.146586 0 0
0.254544 -0.0925159 0
0.143836 -0.0657367 0
0.14216 -0.0635735 0
0.144356 -0.0604752 0
0.313433 -0.107702 0
0.298167 -0.101952 0
0.142728 -0.0632211 0
0.145241 -0.0399932 0
0.140056 -0.0664266 0
0.144423 -0.0566153 0
0.135401 -0.0679859 0
0.144697 -0.0550978 0
0.280522 -0.0945018 0
0.145128 -0.0515044 0
0.136867 -0.0684014 0
0.300125 -0.111292 0
0.135091 -0.0688609 0
0.280515 -0.0969689 0
0.144359 -0.0540386 0
0.143183 -0.0592534 0
0.2805 -0.0994602 0
0.140235 -0.0670954 0
0.297647 -0.111749 0
0.142114 -0.0621929 0
0.137145 -0.0701249 0
0.280466 -0.102253 0
0.141991 -0.0624534 0
0.141866 -0.0627146 0
0.151118 -0.0755826 0
0.141669 -0.0631222 0
0.272348 -0.111632 0
0.141467 -0.0635313 0
0.28042 -0.105078 0
0.141157 -0.0641512 0
0.140838 -0.0647745 0
0.140356 -0.0656918 0
0.280352 -0.108309 0
0.131184 -0.0732614 0
0.139857 -0.0666154 0
0.134004 -0.073856 0
0.280264 -0.111577 0
0.140423 -0.0632874 0
0.139121 -0.0679341 0
0.136438 -0.0723774 0
0.215656 -0.100302 0
0.141972 -0.0293194 0
0.14137 -0.0548679 0
0.296406 -0.123056 0
0.140796 -0.0591353 0
0.138348 -0.0692645 0
0.280136 -0.115352 0
0.137234 -0.0711052 0
0.279974 -0.119167 0
0.136052 -0.0729652 0
0.128351 -0.0782603 0
0.16427 -0.0891396 0
0.1384 -0.0643766 0
0.12996 -0.078403 0
0.279746 -0.123578 0
0.126142 -0.079835 0
0.134374 -0.0754481 0
0.136992 -0.0679165 0
0.260232 -0.115258 0
0.136755 -0.0684432 0
0.138067 -0.0155694 0
0.277411 -0.131058 0
0.279475 -0.128031 0
0.13082 -0.0792398 0
0.136378 -0.0692636 0
0.13579 -0.0705049 0
0.132578 -0.0779419 0
0.137407 -0.0578697 0
0.260205 -0.120061 0
0.134013 -0.0861172 0
0.134884 -0.0723274 0
0.279057 -0.133105 0
0.136558 -0.0628375 0
0.136746 -0.0606723 0
0.12576 -0.0829067 0
0.260146 -0.12536 0
0.133503 -0.0749208 0
0.135381 -0.065504 0
0.130118 -0.0811305 0