# vtk DataFile Version 3.0
File generated from DClib
ASCII

DATASET UNSTRUCTURED_GRID
POINTS 20 float
0 0 0 
1 0 0 
1 1 0 
0 1 0 
0 0 1 
1 0 1 
1 1 1 
0 1 1 
0.5 0 0 
1 0.5 0 
0.5 1 0 
0 0.5 0 
0 0 0.5 
1 0 0.5 
1 1 0.5 
0 1 0.5 
0.5 0 1 
1 0.5 1 
0.5 1 1 
0 0.5 1 
CELLS 1 21
20 0 1 2 3 4 5 6 7 8 9 10 11 16 17 18 19 12 13 14 15 
CELL_TYPES 1
25
POINT_DATA 20
SCALARS scalars float 1
LOOKUP_TABLE default
0
0
0
0
-0.00199999
-0.00199999
-0.00199999
-0.00199999
0
0
0
0
-0.000999996
-0.000999996
-0.000999996
-0.000999996
-0.00199999
-0.00199999
-0.00199999
-0.00199999
VECTORS vectors float
0 0 0 
0 0 0 
0 0 0 
0 0 0 
0 0 0 
0 0 0 
0 0 0 
0 0 0 
0 0 0 
0 0 0 
0 0 1.02364e-09 
0 1.02364e-09 1.02364e-09 
1.02364e-09 -0.00199999 -1.02364e-09 
-0.00199999 -1.02364e-09 -1.02364e-09 
-1.02364e-09 -1.02364e-09 -0.00199999 
-1.02364e-09 -0.00199999 1.02364e-09 
1.02364e-09 1.02364e-09 -0.00199999 
1.02364e-09 -0.00199999 -1.02364e-09 
-0.00199999 -1.02364e-09 1.02364e-09 
-1.02364e-09 1.02364e-09 -0.00199999 
