# vtk DataFile Version 3.0
File generated from DClib
ASCII

DATASET UNSTRUCTURED_GRID
POINTS 2394 float
75 0 0 
74.0132 0 0 
75 1 0 
74.0132 1 0 
73.0263 0 0 
75 2 0 
72.9355 1.08748 0 
73.9223 2.08748 0 
72.0395 0 0 
75 3 0 
72.8446 2.17496 0 
71.9486 1.08748 0 
73.9223 3.08748 0 
71.0526 0 0 
75 4 0 
72.8838 3.58748 0 
71.5238 2.50694 0 
70.6278 1.41947 0 
73.9615 4.5 0 
70.0658 0 0 
75 5 0 
71.563 3.91947 0 
72.9229 5 0 
69.641 1.41947 0 
70.203 2.83893 0 
73.9615 5.5 0 
69.0789 0 0 
75 6 0 
69.1476 2.44434 0 
72.9229 6 0 
71.6239 5.5 0 
70.2639 4.41947 0 
68.5855 1.02487 0 
73.9615 6.5 0 
68.0921 0 0 
75 7 0 
68.0921 2.04975 0 
72.9229 7 0 
71.6239 6.5 0 
68.6542 3.74338 0 
67.5987 1.02487 0 
73.9615 7.5 0 
70.3248 6 0 
67.1053 0 0 
75 8 0 
67.5987 3.34878 0 
67.1053 2.04975 0 
68.7151 5.32391 0 
73.0785 8.1 0 
66.6118 1.02487 0 
74.1171 8.6 0 
66.1184 0 0 
75 9 0 
66.6118 3.34878 0 
66.1184 2.04975 0 
71.6239 8.5 0 
67.1053 4.64782 0 
69.1755 7.15213 0 
70.3248 8 0 
73.2341 9.2 0 
65.625 1.02487 0 
74.1171 9.6 0 
67.5657 6.47604 0 
65.1316 0 0 
75 10 0 
65.1316 2.04975 0 
71.7795 9.6 0 
73.0785 10.1 0 
64.6382 1.02487 0 
65.1137 3.65591 0 
73.9615 10.5 0 
65.6071 4.95495 0 
68.0262 8.30425 0 
69.1755 9.15213 0 
64.1447 0 0 
66.0569 6.38442 0 
75 11 0 
71.6239 10.5 0 
70.3248 10 0 
64.1447 2.04975 0 
72.9229 11 0 
63.6513 1.02487 0 
64.1268 3.65591 0 
73.9615 11.5 0 
66.5173 8.21264 0 
63.1579 0 0 
75 12 0 
63.1579 2.04975 0 
64.1089 5.26208 0 
73.0785 12.1 0 
67.2259 9.58662 0 
68.3752 10.4345 0 
62.6645 1.02487 0 
64.5587 6.69155 0 
63.14 3.65591 0 
74.1171 12.6 0 
62.1711 0 0 
65.0085 8.12102 0 
70.3248 12 0 
71.6239 12.5 0 
62.1711 2.04975 0 
75 13 0 
65.717 9.495 0 
68.9358 11.8258 0 
62.6466 4.95495 0 
73.2341 13.2 0 
61.6776 1.02487 0 
63.0969 6.3615 0 
74.1171 13.6 0 
61.6776 3.34878 0 
61.1842 0 0 
66.4255 10.869 0 
63.5467 7.79097 0 
61.1842 2.04975 0 
71.7795 13.6 0 
75 14 0 
73.0785 14.1 0 
60.6908 1.02487 0 
63.9359 9.23812 0 
73.9615 14.5 0 
61.1842 4.64782 0 
66.9861 12.2603 0 
61.6346 6.05437 0 
60.6908 3.34878 0 
70.3248 14 0 
60.1974 0 0 
64.6444 10.6121 0 
71.6239 14.5 0 
62.085 7.46091 0 
60.1974 2.04975 0 
75 15 0 
68.9358 13.8258 0 
72.9229 15 0 
59.7039 1.02487 0 
65.5009 12.0501 0 
62.4741 8.90807 0 
73.9615 15.5 0 
67.5467 13.6516 0 
59.2105 0 0 
60.2109 5.66149 0 
62.8633 10.3552 0 
60.6613 7.06804 0 
75 16 0 
59.1118 1.8996 0 
66.0615 13.4414 0 
69.4963 15.2171 0 
73.0785 16.1 0 
63.7198 11.7932 0 
59.2712 4.40082 0 
61.0276 8.51671 0 
58.6184 0.874731 0 
58.7778 3.10178 0 
68.1073 15.0429 0 
74.1171 16.6 0 
70.3248 16 0 
58.2237 0 0 
71.6239 16.5 0 
64.5763 13.2312 0 
61.4167 9.96386 0 
75 17 0 
66.6221 14.8327 0 
58.0263 1.74946 0 
59.2376 6.67516 0 
62.2346 11.583 0 
73.2341 17.2 0 
57.6316 0.874731 0 
59.6039 8.12383 0 
57.6923 2.95164 0 
58.2979 5.41449 0 
68.6678 16.4342 0 
74.1171 17.6 0 
65.1369 14.6226 0 
63.0911 13.0211 0 
57.2368 0 0 
59.9702 9.5725 0 
71.7795 17.6 0 
57.1382 1.8996 0 
75 18 0 
67.1826 16.2241 0 
69.4963 17.2171 0 
60.8215 11.2716 0 
57.3582 4.15382 0 
73.0785 18.1 0 
56.7434 1.02487 0 
63.6517 14.4124 0 
56.8041 3.10178 0 
57.8154 6.75019 0 
58.376 8.14151 0 
65.6974 16.0139 0 
73.9615 18.5 0 
61.6059 12.8109 0 
70.3248 18 0 
56.25 0 0 
71.6239 18.5 0 
56.25 2.04975 0 
58.7423 9.59018 0 
56.8757 5.48952 0 
75 19 0 
59.3749 10.8802 0 
67.7432 17.6154 0 
72.9229 19 0 
64.2122 15.8037 0 
62.1665 14.2022 0 
55.7566 1.02487 0 
60.1928 12.4994 0 
66.258 17.4052 0 
68.5717 18.3983 0 
73.9615 19.5 0 
55.7563 3.4912 0 
55.2632 0 0 
56.3932 6.82522 0 
56.9538 8.21654 0 
62.727 15.5935 0 
55.2022 2.43916 0 
57.5143 9.60785 0 
75 20 0 
64.7728 17.195 0 
60.6813 13.992 0 
58.147 10.8979 0 
73.0785 20.1 0 
58.7796 12.188 0 
55.3905 5.27933 0 
54.7088 1.41428 0 
66.8186 18.7965 0 
70.3248 20 0 
74.1171 20.6 0 
63.2876 16.9848 0 
61.2418 15.3833 0 
69.1323 19.7896 0 
54.2763 0 0 
71.6239 20.5 0 
59.2681 13.6806 0 
65.3334 18.5863 0 
75 21 0 
54.1544 2.82857 0 
55.4686 8.00635 0 
54.908 6.61503 0 
56.0291 9.39767 0 
73.2341 21.2 0 
53.7219 1.41428 0 
56.5897 10.789 0 
61.8024 16.7746 0 
57.2224 12.079 0 
63.8482 18.3761 0 
59.7566 15.1731 0 
67.3791 20.1878 0 
74.1171 21.6 0 
53.7886 4.61671 0 
53.2895 0 0 
71.7795 21.6 0 
57.7829 13.4704 0 
53.2285 2.43916 0 
65.8939 19.9776 0 
75 22 0 
62.363 18.1659 0 
60.3172 16.5644 0 
73.0785 22.1 0 
52.7961 1.02487 0 
53.9834 7.79616 0 
54.5439 9.18748 0 
64.4087 19.7674 0 
58.2714 14.9629 0 
70.3248 22 0 
53.4228 6.40485 0 
73.9615 22.5 0 
55.1045 10.5788 0 
69.1323 21.7896 0 
52.7351 3.7382 0 
52.3026 0 0 
67.9397 21.5791 0 
55.6651 11.9701 0 
71.6239 22.5 0 
52.3026 2.04975 0 
60.8778 17.9557 0 
62.9235 19.5573 0 
58.832 16.3542 0 
75 23 0 
66.4545 21.3689 0 
56.2257 13.3614 0 
72.9229 23 0 
51.8092 1.02487 0 
52.3693 5.52633 0 
64.9693 21.1588 0 
51.8092 3.34878 0 
56.7862 14.7527 0 
73.9615 23.5 0 
61.4383 19.3471 0 
59.3926 17.7456 0 
51.4145 1.8996 0 
51.3158 0 0 
53.0587 8.97729 0 
52.4982 7.58597 0 
53.6193 10.3686 0 
71.2128 23.5672 0 
63.4841 20.9486 0 
54.1799 11.7599 0 
57.3468 16.1441 0 
75 24 0 
50.9211 0.874731 0 
51.3158 4.64782 0 
54.7405 13.1512 0 
72.5118 24.0672 0 
69.5776 23.6331 0 
50.9211 3.19864 0 
68.385 23.4226 0 
59.9531 19.1369 0 
61.9989 20.7384 0 
55.301 14.5426 0 
57.9074 17.5354 0 
51.4447 6.70746 0 
67.1321 23.2061 0 
50.5263 1.74946 0 
73.5504 24.5672 0 
50.3289 0 0 
65.6469 22.9959 0 
55.8616 15.9339 0 
75 25 0 
51.5735 8.7671 0 
52.1341 10.1584 0 
49.9342 0.874731 0 
52.6947 11.5497 0 
60.5137 20.5282 0 
58.4679 18.9267 0 
72.1008 25.1344 0 
53.2553 12.941 0 
49.8355 3.34878 0 
56.4222 17.3252 0 
53.8158 14.3324 0 
70.4655 25.2003 0 
73.5504 25.5672 0 
49.4408 1.8996 0 
49.3421 0 0 
63.815 23.2124 0 
59.0285 20.318 0 
49.9595 6.49727 0 
54.3764 15.7237 0 
61.0743 21.9195 0 
56.9827 18.7165 0 
75 26 0 
68.8303 25.2661 0 
49.3989 5.10595 0 
67.5774 25.0496 0 
48.8487 1.02487 0 
62.3298 23.0022 0 
50.6489 9.94823 0 
66.3246 24.8331 0 
50.0883 8.55691 0 
51.2095 11.3395 0 
54.937 17.115 0 
51.7701 12.7309 0 
72.4347 26.4726 0 
59.5891 21.7093 0 
57.5433 20.1078 0 
48.3553 0 0 
52.3306 14.1222 0 
48.3553 2.04975 0 
70.9797 26.4993 0 
55.4975 18.5063 0 
73.8843 26.9053 0 
75 27 0 
52.8912 15.5135 0 
47.8618 1.02487 0 
69.3444 26.5651 0 
64.4926 25.0496 0 
58.1039 21.4991 0 
47.9186 3.80692 0 
53.4518 16.9048 0 
68.3162 26.5651 0 
60.1497 23.1006 0 
56.0581 19.8976 0 
67.0633 26.3486 0 
49.1637 9.73804 0 
49.7243 11.1294 0 
47.3684 0 0 
48.6031 8.34672 0 
50.2849 12.5207 0 
47.3684 2.04975 0 
61.4051 24.1834 0 
66.035 26.3486 0 
48.0426 6.9554 0 
54.0123 18.2961 0 
50.8454 13.912 0 
72.7686 27.8107 0 
73.8843 27.9053 0 
75 28 0 
47.482 5.56409 0 
71.3136 27.8374 0 
62.6606 25.2661 0 
58.6645 22.8904 0 
51.406 15.3033 0 
56.6187 21.2889 0 
46.875 1.02487 0 
46.9318 3.80692 0 
69.8586 27.8642 0 
54.5729 19.6874 0 
51.9666 16.6946 0 
68.8303 27.8642 0 
46.3816 0 0 
64.203 26.5651 0 
46.3816 2.04975 0 
67.802 27.8642 0 
57.1793 22.6803 0 
52.5271 18.0859 0 
48.2391 10.9192 0 
59.6464 24.5 0 
47.6785 9.52785 0 
48.7997 12.3105 0 
72.856 28.9053 0 
75 29 0 
73.9717 29 0 
47.1179 8.13653 0 
66.7737 27.8642 0 
49.3602 13.7018 0 
71.8278 28.9053 0 
45.8882 1.02487 0 
60.9019 25.5828 0 
46.5574 6.74521 0 
49.9208 15.0931 0 
63.0719 26.7325 0 
70.3727 28.9321 0 
53.0877 19.4772 0 
65.7455 27.8642 0 
69.3444 28.9321 0 
62.1465 26.5651 0 
50.4814 16.4844 0 
58.1612 24.2899 0 
45.3947 0 0 
45.7749 5.05301 0 
45.3947 2.04975 0 
68.3162 28.9321 0 
54.7594 21.7738 0 
51.4788 18.4418 0 
64.6143 28.0315 0 
67.2879 28.9321 0 
45.2247 3.29583 0 
75 30 0 
73.9717 30 0 
72.9434 30 0 
44.9013 1.02487 0 
71.9152 30 0 
46.7539 10.709 0 
47.3145 12.1003 0 
66.2596 28.9321 0 
46.1933 9.31766 0 
70.8869 30 0 
47.875 13.4916 0 
52.0394 19.8331 0 
59.1432 25.8994 0 
55.3199 23.1651 0 
45.6327 7.92634 0 
69.8586 30 0 
48.4356 14.8829 0 
63.4832 28.1989 0 
65.2313 28.9321 0 
44.4079 0 0 
60.3877 26.8818 0 
53.2742 21.5636 0 
68.8303 30 0 
44.4079 2.04975 0 
62.5578 28.0315 0 
48.9962 16.2742 0 
56.4771 24.5037 0 
44.8502 6.23413 0 
67.802 30 0 
61.6323 27.8642 0 
44.2378 3.29583 0 
49.9936 18.2316 0 
64.1002 29.0994 0 
43.9145 1.02487 0 
66.7737 30 0 
59.3793 26.9231 0 
44.0678 4.54192 0 
50.991 20.1889 0 
60.6239 27.9055 0 
65.7455 30 0 
63.0719 29.0994 0 
57.4591 26.1133 0 
45.8292 11.8901 0 
45.2687 10.4988 0 
46.3898 13.2814 0 
43.4211 0 0 
52.2258 21.9194 0 
44.7081 9.10747 0 
43.4211 2.04975 0 
46.9504 14.6727 0 
62.1465 28.9321 0 
58.4385 27.0222 0 
64.7172 30 0 
44.1475 7.71616 0 
47.511 16.0641 0 
59.6155 27.9468 0 
43.251 3.29583 0 
53.4606 23.65 0 
63.6889 30 0 
42.9276 1.02487 0 
61.1182 28.9321 0 
48.0715 17.4554 0 
43.365 6.02395 0 
54.6178 24.9885 0 
49.069 19.4127 0 
62.6606 30 0 
58.6747 28.0459 0 
50.8222 21.6733 0 
42.4342 0 0 
60.1098 28.9734 0 
55.775 26.3271 0 
42.4342 2.04975 0 
52.057 23.4039 0 
56.7544 27.236 0 
44.344 11.6799 0 
49.6295 20.804 0 
44.9046 13.0712 0 
61.6323 30 0 
43.7834 10.2886 0 
45.4652 14.4625 0 
43.2228 8.89729 0 
57.7339 28.1449 0 
46.0258 15.8539 0 
59.1213 28.9734 0 
41.9408 1.02487 0 
42.6622 7.50598 0 
46.5863 17.2452 0 
60.604 30 0 
55.9067 27.3302 0 
52.3471 24.5393 0 
53.1846 25.3346 0 
47.1469 18.6365 0 
41.7707 4.59487 0 
56.8861 28.2391 0 
41.4474 0 0 
58.1804 29.0725 0 
50.6533 23.1578 0 
41.3487 1.8996 0 
59.6155 30 0 
54.3417 26.6731 0 
55.1468 27.4186 0 
47.7075 20.0278 0 
49.4607 22.2884 0 
57.2873 29.0725 0 
56.0384 28.3333 0 
43.4194 12.861 0 
42.8588 11.4697 0 
43.98 14.2524 0 
40.8553 0.874731 0 
58.627 30 0 
50.9434 24.2932 0 
40.9539 3.34878 0 
42.2982 10.0784 0 
44.5406 15.6437 0 
48.2681 21.4191 0 
41.7376 8.68711 0 
45.1011 17.035 0 
41.068 6.0769 0 
40.4605 0 0 
56.4396 29.1666 0 
55.2785 28.4216 0 
41.177 7.2958 0 
57.7339 30 0 
45.6617 18.4263 0 
40.2632 1.74946 0 
51.2336 25.4286 0 
52.071 26.2239 0 
52.9085 27.0192 0 
46.2223 19.8176 0 
49.2716 23.6764 0 
53.7135 27.7646 0 
55.6371 29.1666 0 
56.8408 30 0 
54.5186 28.51 0 
39.8684 0.874731 0 
[...]
POINT_DATA 2394
SCALARS cohesion float 1
LOOKUP_TABLE default
39.8595
39.599
41.6754
42.4271
39.1189
40.8009
41.7779
39.8646
37.391
28.2318
38.0913
41.1104
27.7131
34.8338
26.0973
25.146
31.8007
38.8243
25.5963
32.0989
24.3718
24.7778
24.9006
36.2448
25.532
22.7618
31.1525
22.1348
29.9657
21.5162
22.2553
24.5121
32.5214
22.6716
30.0973
24.2965
32.9108
23.6645
21.0586
24.1177
29.6956
25.7815
19.6119
28.4408
27.5688
22.3002
31.1626
21.4858
26.6215
28.0638
27.8116
26.4728
27.4739
23.4921
29.079
25.1443
24.8416
20.6408
23.6285
25.8681
27.0729
26.2538
19.1732
25.6321
25.5908
28.5068
24.0017
24.8971
26.0066
24.1387
24.5739
23.2261
21.8432
21.7337
25.0892
18.8478
26.8114
21.1688
19.0225
30.4256
24.709
25.8043
22.572
29.9401
21.783
24.7624
34.6528
29.1883
23.1542
34.0023
18.9836
18.1969
26.2116
19.6063
25.2935
37.0735
24.6713
22.2483
29.2062
33.4108
30.528
36.8109
19.1573
26.4865
25.7157
35.5913
26.4134
20.5794
35.7569
25.3799
25.1362
19.4271
23.6914
31.88
33.249
35.3415
34.4156
27.0193
20.9072
32.9234
28.2467
28.4461
21.4979
25.5431
28.8665
25.4228
19.9324
29.2939
26.175
33.3086
31.1937
29.2019
29.6907
27.193
28.6459
22.771
30.6156
28.7387
26.0392
23.5862
20.7611
26.6133
32.1248
34.105
28.925
27.7841
31.3442
28.9127
28.0081
25.7062
26.6928
25.5016
25.5687
28.8154
28.8625
26.1765
28.0518
31.0977
22.3786
25.7203
26.4871
33.6787
25.8164
29.2923
23.9376
26.4506
29.246
25.4055
23.801
31.6869
21.4718
27.0712
32.4444
25.6799
22.9366
20.7165
33.0835
20.7903
32.1172
24.1971
26.0692
26.128
20.5531
26.2572
28.0495
22.3958
26.7435
29.9257
33.4242
21.351
32.6983
22.3842
24.6965
22.8208
31.0939
22.0655
21.4103
21.2772
23.4833
23.3531
21.5058
33.112
29.4067
26.3171
32.0671
26.029
24.9246
19.1492
21.7711
22.9098
27.6818
29.5418
32.1006
25.6833
21.0936
17.7494
29.1382
29.265
22.1889
17.9481
30.3517
21.52
27.2063
27.6738
19.1809
19.4319
31.9168
30.2493
20.5036
21.4112
19.6609
28.7899
28.128
22.6482
19.984
29.4312
24.6457
20.7427
24.6006
26.5203
19.9896
33.5228
26.397
28.7315
28.1034
22.0342
29.9538
19.8497
22.045
31.5066
27.7455
23.4588
22.9198
35.6343
27.7492
34.7506
35.7252
24.6409
30.5184
20.7678
23.7247
26.7734
41.4532
22.2915
35.147
18.0863
37.5623
20.5544
22.9181
37.2334
24.173
36.2192
27.1629
26.3677
24.6523
33.2503
31.1164
35.5675
26.553
31.401
23.5962
20.1305
34.7567
18.8978
25.7593
27.908
25.2709
26.1066
27.8005
23.1846
22.2203
31.2058
17.8736
28.4994
31.5986
22.2456
32.3709
26.9163
23.2265
21.4328
26.8495
27.1245
29.7125
20.1711
30.3706
24.3033
27.6045
26.5366
25.9513
28.9258
32.0747
27.7915
27.8773
23.186
32.3444
31.227
27.5215
26.0311
18.5699
22.9073
21.3792
23.3959
23.3823
29.2866
27.8161
21.0407
27.0612
28.3297
28.0421
24.9839
26.5716
22.3899
30.6296
20.8916
26.9773
31.0522
35.5395
22.0815
22.6138
27.7524
23.4883
27.5543
22.8324
31.6279
19.3802
28.6109
29.9108
21.4742
28.9967
29.782
19.7627
37.0792
19.5128
21.3904
31.2801
23.8843
19.5224
22.0759
20.4082
20.6822
31.6698
22.6669
18.9912
26.3439
35.0504
22.8231
31.7621
18.919
26.1177
17.5967
19.2339
20.7611
22.3048
20.4906
32.1485
32.1089
21.9409
25.454
19.3167
28.6373
22.9127
35.0375
26.4342
27.961
29.4481
23.1296
26.3698
25.5824
27.7517
31.7023
33.9236
21.7011
22.2379
26.3189
16.9562
35.064
26.5824
20.3513
18.9436
21.7788
25.8919
29.0653
24.3055
22.7365
27.1656
21.746
33.0975
30.122
29.1934
30.0074
31.0803
25.8794
38.2768
30.2454
20.3921
23.4875
26.314
33.0089
18.6299
29.9313
16.3472
25.8657
29.6028
19.0314
36.9882
26.5358
20.1406
22.7973
21.5449
29.6058
38.9652
22.4358
29.804
29.8767
18.9464
26.5709
26.2382
25.2278
19.6944
25.0718
22.7092
33.968
30.2305
22.0562
24.2829
40.7325
18.1295
21.2692
28.4043
31.7505
24.6825
33.3644
33.3659
30.3714
20.0081
19.5212
38.1622
24.2526
20.7404
30.9853
36.1082
27.6343
21.855
24.4724
28.6134
17.5273
24.7454
29.7052
19.3447
24.0844
19.308
22.6974
19.4247
29.7679
24.671
30.2677
20.4778
33.2206
23.1806
41.9136
19.9776
43.4331
22.5396
19.9838
34.0269
31.9002
19.8626
25.5324
30.3905
32.5162
30.9668
18.1218
28.1029
27.0404
19.5165
32.41
29.936
21.4826
27.1461
17.6557
26.8369
31.3322
45.6681
20.2917
32.2752
18.7851
19.408
29.9891
20.2815
32.1432
32.8426
43.5487
26.8269
23.8433
34.4728
23.2322
32.3828
30.6115
32.1074
19.9437
30.2369
30.082
27.4849
20.779
32.7417
24.7192
22.0157
22.7604
32.1096
21.249
31.5931
33.4915
20.6033
28.1999
18.1625
20.6631
19.5979
43.0595
30.9133
32.2336
43.3951
31.1653
34.7544
20.9222
28.8244
36.3729
19.2896
24.709
29.0938
46.0848
25.9314
31.6342
23.1921
22.507
30.4062
32.2144
31.0261
29.2509
24.5995
22.1456
24.8801
20.9536
17.974
18.1813
36.5658
23.1211
29.7694
29.8787
32.5668
22.0906
19.6438
38.9284
40.4227
42.8328
35.7625
30.0606
24.5292
27.8254
29.9449
29.3313
23.6134
33.8261
30.7702
26.1615
32.9486
22.3882
28.8592
29.1317
26.6446
21.5291
24.0396
19.1793
25.0982
24.5941
29.1862
30.7271
32.8445
23.232
30.4209
17.5208
20.4438
38.4411
30.6805
39.729
35.2039
29.3612
30.49
24.652
22.3268
29.895
35.9667
40.5642
27.2301
31.0655
29.2548
30.298
33.246
30.3539
27.6976
20.8546
20.7179
27.9618
33.359
25.5144
24.7137
30.8966
26.5875
23.7202
29.4469
32.5403
19.3259
30.6622
29.7109
28.4377
30.0117
37.3852
29.4962
31.6423
25.9757
36.9157
29.8538
21.5513
37.8248
29.2476
26.0786
29.9756
25.3844
20.9062
31.6296
30.4508
25.3698
35.8247
26.7933
29.9337
38.7099
32.9738
30.8038
32.081
37.6515
30.7872
26.75
29.4443
21.4008
37.0656
30.2627
28.4048
22.0934
25.8943
32.3003
26.9332
28.2494
30.7142
20.4705
31.7562
31.4398
26.2944
41.5016
29.8941
37.054
35.1541
30.9831
32.7383
31.8106
31.3944
25.9703
22.3719
33.0961
28.6037
31.7716
25.9998
31.3879
31.3678
32.816
29.6767
27.3167
36.2765
31.1349
33.4763
36.4832
31.8487
38.3964
28.2182
21.6226
33.3521
32.6356
24.3035
31.0779
31.6016
33.6654
37.2572
39.3272
32.2136
27.9148
32.6616
31.3479
33.7464
23.7713
23.7949
33.1133
34.0641
33.1248
27.4024
34.2315
24.4954
32.9411
35.5283
26.6788
34.753
24.9921
34.4327
32.0658
30.141
33.1834
34.0095
33.5097
34.9016
30.3789
34.7647
26.1003
34.124
42.0004
28.6351
35.2855
34.1804
22.6161
35.0137
33.7953
25.1578
34.0824
27.5245
29.9592
35.4993
31.883
33.5035
37.328
38.4666
32.1668
34.6789
24.4202
35.409
34.1778
35.6793
35.1954
26.8112
35.8129
34.5252
31.1911
35.1141
35.6558
34.4419
20.7345
34.3917
27.7098
36.1849
34.4102
29.7364
35.572
35.9856
29.8877
22.7319
36.4739
34.029
34.1316
33.7612
35.9837
36.1395
27.5918
35.3489
36.7474
34.8038
36.3389
32.8476
36.4062
33.6488
32.4398
24.9666
35.6272
36.9763
29.4341
33.0378
22.3025
36.5585
36.7383
35.1593
32.3623
35.9114
37.2053
35.6059
37.0191
36.7574
24.9239
37.359
30.1364
35.5146
36.9149
37.3424
42.7942
35.4998
25.6068
36.7956
37.5257
35.2982
36.3673
37.5479
37.0858
30.1713
37.6503
37.112
27.9347
29.2844
36.4574
35.7728
37.2264
39.6342
37.7325
34.5321
35.8602
37.2744
37.758
36.6982
36.6882
35.6569
22.8135
37.9026
37.3479
37.8681
35.119
33.4829
26.0512
37.4645
38.0664
28.0358
35.7522
37.5922
37.9366
36.9108
33.8406
37.5589
29.9767
38.1082
37.7796
36.4511
38.0283
36.5454
19.7384
31.155
28.1961
37.6504
38.1986
31.6603
37.8675
38.1094
36.0698
37.6073
37.7107
38.2492
29.507
35.7772
38.188
21.9863
37.8002
38.3299
37.0546
33.1459
38.2471
37.2869
38.3656
37.889
30.8485
38.3447
37.3918
37.1099
38.3113
36.0206
37.9965
36.8101
38.421
35.4605
38.3922
36.9945
38.0766
38.4797
36.6934
35.9809
38.4583
38.1452
32.912
25.8501
36.7719
38.5273
37.2974
35.9128
41.1065
38.231
38.2143
27.9379
36.6962
37.3615
35.0897
38.5809
35.2508
35.705
37.9413
38.2406
36.2805
30.1275
38.5877
37.3059
36.7185
36.9461
38.2675
36.2138
24.4835
38.0912
38.0231
35.8354
37.3276
33.8262
38.5919
36.5125
34.4606
34.8869
34.8297
43.1587
36.1051
38.2599
33.9384
36.5021
38.1587
34.3439
38.5623
36.6101
38.2188
32.5133
37.7852
35.2992
31.2583
34.3154
35.6795
38.5099
36.5694
33.4782
36.2788
38.1271
25.5301
37.3403
20.734
36.9486
34.4014
30.5281
38.3708
38.0032
34.8763
36.2709
30.8652
24.9087
36.8217
35.0391
29.0414
37.5398
31.2919
27.1362
18.7236
38.2228
35.3091
31.7533
37.8055
28.8552
35.8391
36.4764
37.6448
32.8584
34.9502
38.037
34.9239
37.555
29.3313
37.5393
33.2325
25.3562
38.5603
36.2294
36.9598
34.5533
34.8269
30.1901
37.7592
37.2184
25.0441
32.834
35.7185
36.243
31.2017
34.0098
37.4147
34.527
30.4048
36.795
32.4306
33.6474
28.1586
35.2841
35.2179
36.1673
33.4746
31.8679
36.2916
37.0072
28.6355
36.2497
33.2734
33.9439
39.3435
34.7495
34.5737
32.7875
29.3935
36.0615
21.8724
39.9739
36.4973
42.7072
35.6204
30.3828
26.6238
33.9369
23.8144
32.0043
35.2444
27.6135
35.8484
29.7422
28.7895
31.012
34.8209
32.9966
24.9561
35.9742
26.1402
28.2222
28.1178
31.1801
31.7931
20.2885
32.5182
34.3609
22.3943
35.1619
28.8642
33.9083
29.4094
32.1724
23.8703
30.2069
36.02
32.8238
31.7714
25.1578
33.5239
33.8044
34.2875
32.8346
31.5636
30.9994
29.031
26.6098
20.4828
23.534
27.7594
26.9542
33.2952
33.2965
31.0855
31.6942
21.9911
29.9204
29.3333
32.995
28.0035
30.3085
40.9046
23.0176
26.1979
39.592
27.5026
32.0756
32.548
30.4133
28.5691
24.6832
26.7637
44.4542
23.7181
25.4445
30.8357
29.1155
31.9565
33.5002
27.285
31.1279
25.6279
34.3363
24.7364
32.1941
29.4057
22.1155
29.0066
26.4851
22.0925
30.0256
28.5284
21.0356
20.6979
39.0861
21.3002
27.657
29.3414
25.8401
33.1951
24.6697
30.7618
21.9253
21.7405
29.1874
23.104
26.1957
24.5896
23.7695
27.5863
27.9783
29.6361
23.6094
33.0644
23.1919
36.9043
21.9734
28.266
20.8554
37.8469
19.3836
23.2326
22.7419
25.964
24.6478
26.9965
44.1126
26.3846
28.5032
30.7597
20.7065
30.2359
21.0218
21.4623
35.2287
21.8164
22.2896
29.3583
32.1285
25.8399
23.1575
21.6915
24.9741
31.6397
30.7058
27.2169
24.636
18.6012
22.5415
27.7873
25.48
27.6943
31.6655
20.4404
21.3799
18.8391
24.5612
36.7502
21.9136
23.5629
25.7046
25.4482
25.6274
32.3311
34.1302
19.0816
27.098
18.1003
38.5588
20.4378
30.1852
18.1891
21.0636
20.7465
22.4331
40.0062
20.0687
22.3005
24.3449
24.2558
36.6226
27.0071
17.8285
17.5437
19.302
28.0999
26.5186
20.4971
28.225
30.985
26.9004
28.6136
25.9489
21.1211
22.7634
32.593
19.9315
17.0323
26.085
24.5959
23.469
18.1198
23.866
19.928
30.523
22.2129
44.8107
20.7157
18.526
32.7087
20.6044
34.4244
16.9686
21.3469
38.7412
27.3081
17.1746
25.8034
36.711
29.625
22.0597
18.6916
26.9354
38.3818
22.2755
28.7589
19.6968
20.3351
21.1661
28.876
17.2471
44.5839
21.0494
16.8783
21.1591
28.7739
24.2693
17.507
30.934
22.854
26.2926
21.5381
19.7544
19.041
35.5557
19.6093
22.1978
28.7621
17.6974
21.2123
26.0866
37.4169
25.6071
33.1823
36.4195
17.1813
29.4198
39.019
26.8487
25.3042
18.7992
31.8639
26.3308
38.0457
18.4848
40.4561
21.8083
23.7889
41.6678
31.2297
22.2101
19.5983
20.7254
27.0775
31.171
19.3147
17.4919
24.3732
22.1319
24.9968
22.1541
35.6879
28.5035
18.0741
31.3907
29.64
20.5718
21.7311
19.1104
30.231
22.7535
42.8884
19.0481
22.4791
19.6316
23.0781
19.4186
23.5137
35.4259
18.6402
40.2819
27.8983
39.2315
33.8412
27.9638
44.1815
22.5494
40.9485
31.399
23.2378
24.577
26.4849
35.2246
18.7282
24.7903
21.4852
24.1536
20.5064
43.9379
25.8358
16.6765
20.1802
24.0257
28.3414
26.8107
27.5661
30.945
35.0549
22.6401
36.8876
16.7639
25.8705
34.1429
35.6771
23.373
19.0367
25.4931
38.3766
34.3788
22.5293
25.5718
21.5208
24.0317
34.3091
31.5849
26.4601
43.3371
31.926
30.7794
47.9219
25.2617
21.4047
25.2356
28.2667
41.9731
21.9391
29.284
41.6018
45.3549
19.1891
21.3945
26.3811
26.0589
24.4133
28.7967
31.4541
37.0418
35.0738
26.7138
25.1906
34.8093
23.8985
23.2518
23.5708
27.657
29.6554
30.473
22.6215
21.3634
25.3428
26.4475
17.8016
31.3576
28.1972
31.8938
21.1844
27.178
18.5209
29.7335
23.2334
38.9839
40.4061
26.7071
25.4846
24.1805
30.137
24.1626
28.8662
38.8102
42.3113
23.4832
45.5294
40.5086
24.4195
27.3721
25.3013
45.7001
31.7148
22.3465
44.7648
27.5196
25.3228
32.6163
22.48
25.6246
27.4744
39.7541
35.6965
36.8287
23.5385
38.7706
24.5071
26.315
24.1031
22.6587
31.8972
18.0996
28.8557
31.0108
28.0663
28.1304
24.9274
24.0105
23.0031
42.6872
26.8879
23.9628
42.2352
26.4712
21.85
28.0273
24.7482
20.6737
30.4778
26.8958
35.4069
19.8485
37.28
37.0135
31.9687
22.8634
28.1446
23.7829
43.4028
32.9123
34.0533
36.3012
27.4579
20.9403
26.2412
25.3925
45.8638
21.3441
48.6314
35.7597
33.904
44.2914
23.803
40.9239
41.9392
19.7788
22.3399
36.2015
26.2878
16.6808
27.9727
24.8119
31.6443
25.3109
28.4739
30.6755
20.4664
31.3451
19.7267
24.0581
27.2284
24.157
40.4301
37.3506
26.5385
35.1048
24.234
20.1916
24.5086
29.3181
19.5928
36.2099
37.8346
32.4204
25.9358
38.2187
23.6023
41.7052
20.1367
40.8056
24.9454
27.5705
22.6637
27.1748
20.0084
32.8922
18.1453
22.9295
42.2021
35.8484
20.4854
23.5079
25.4899
41.0046
31.2823
28.1999
20.0075
33.144
39.4737
31.2194
43.8155
37.7813
27.4577
19.8908
43.2873
29.0317
15.9286
26.2032
41.5694
28.4768
35.4424
40.0652
23.5281
40.1418
19.8059
21.4453
28.8262
39.9889
29.2286
30.918
34.2101
36.8552
24.3409
19.1233
25.7086
25.8143
34.7371
32.4053
39.914
19.7879
40.3312
20.862
26.3929
23.5453
35.0501
28.1219
42.9701
19.001
29.5318
46.4624
31.1047
19.6934
39.2977
22.8262
20.3642
16.0367
36.37
39.7841
36.1933
31.6557
26.4696
26.6927
30.9675
30.5292
18.8314
29.2273
24.2177
27.991
21.4941
20.5735
19.6016
30.1393
25.9496
36.8739
14.4902
22.8791
39.3769
35.7145
31.4205
18.7134
25.2072
28.3957
39.3815
38.3591
36.1684
39.5943
26.7222
19.4741
41.2355
30.4508
18.8797
27.9542
32.6014
31.8934
34.7896
30.7704
20.8804
28.4314
23.4133
24.1804
26.7388
23.6472
19.4487
29.0581
18.7859
38.6701
39.3209
36.359
25.7921
30.1176
29.4304
21.8142
28.0232
19.3634
19.3389
26.65
23.812
19.3214
30.3866
18.4546
38.8191
31.5379
42.4301
19.2996
37.1065
27.5656
25.2399
20.9948
19.0066
26.3607
51.1408
37.5923
18.381
32.8179
32.8333
26.76
19.1846
28.3389
22.919
20.2955
24.8808
18.581
26.2228
30.0851
18.3572
20.5312
37.4371
19.1655
37.2416
31.0725
16.0827
29.8397
37.9618
32.9155
32.2269
33.7451
20.2676
18.5554
27.4049
33.1836
18.3565
27.4578
31.3859
19.1146
21.0858
27.302
23.4995
29.9688
32.329
26.9528
25.4666
18.5259
18.3479
19.088
19.0094
39.2391
32.0788
35.1746
19.5516
32.6878
26.4732
22.3473
18.3488
19.0951
35.1073
20.7807
21.9158
18.317
33.0634
27.5618
13.7097
24.9935
19.0371
55.2698
19.1492
26.5079
18.344
21.012
29.7346
32.6013
19.1866
18.6081
21.0085
27.4444
18.4493
33.1046
37.6218
33.7575
30.8203
27.3998
39.6473
19.2355
27.6597
24.3991
39.1459
36.5995
18.665
22.5827
18.5411
29.6104
19.2341
18.8169
28.3595
27.0189
18.5986
39.0944
20.4492
19.3005
22.9434
32.3536
25.4653
27.5284
41.6748
23.8395
18.8064
18.6759
20.4079
19.3944
43.1576
40.4966
18.8191
43.916
20.8391
18.846
19.4752
25.926
19.0208
39.9088
28.3752
21.4163
31.502
18.9531
19.5601
21.8736
31.3292
19.2391
30.5232
19.0135
49.0973
27.2433
19.6672
19.7321
28.5153
24.0417
19.1263
33.2294
32.3135
20.1682
31.8379
33.6232
36.7129
19.8192
30.8763
19.2219
32.4636
38.973
23.9735
23.1202
39.499
28.3474
20.0109
27.7236
20.1111
19.4528
26.7456
27.7128
25.2356
17.318
20.177
39.2995
37.429
20.1778
38.3277
16.655
35.0237
19.718
35.41
27.9452
20.3517
30.2516
21.0799
32.1984
27.1199
27.9838
53.6785
19.9482
21.966
20.569
31.7369
23.3574
20.2399
36.1554
26.79
27.4583
32.5316
20.8911
34.2065
36.8025
21.8574
28.7485
34.9718
31.2634
35.0487
34.9315
20.5878
32.144
27.8799
30.5189
21.1616
35.7837
21.768
30.5481
39.7799
42.0816
20.893
28.7866
35.9874
19.4019
33.106
29.8446
21.4695
16.3907
22.4387
29.7588
50.2777
38.6363
21.2279
28.6421
26.751
21.7462
27.9702
23.4383
23.036
30.9009
32.7966
21.6444
38.6202
36.5851
40.8228
22.0841
31.9246
30.132
29.3753
21.9667
25.3388
24.4015
32.7408
30.0177
22.3857
40.8409
33.3348
34.9041
32.9111
24.0438
28.1582
42.8216
31.2055
45.0672
32.0426
29.9053
22.7793
27.3291
41.8948
30.8095
22.5567
14.9479
30.1637
29.8088
32.1064
39.5575
24.7741
39.1882
23.1354
21.8857
49.0655
30.2532
32.5278
22.9771
29.1448
33.2985
25.7723
31.1612
21.7099
31.6708
23.5392
26.7689
32.1537
27.9051
37.2031
42.1093
23.3736
42.9833
32.126
30.9488
29.7418
37.2067
29.2419
30.6981
23.8807
16.2958
29.2162
33.6607
31.9744
38.4404
36.7353
30.0324
24.1927
38.8203
31.488
34.3121
24.4001
52.1646
29.9013
33.5809
24.3467
20.8874
35.8983
34.7507
24.4471
34.1094
27.3875
30.7228
24.6895
22.9659
32.2195
38.3985
30.2865
20.2796
35.9989
24.7537
32.3043
25.2852
29.1358
36.4737
43.3819
31.6203
33.9909
31.3263
37.5108
29.9986
34.5542
30.3378
35.1795
28.023
16.5103
25.0861
28.3065
45.4819
30.0762
24.436
25.3427
27.4838
36.5652
39.7615
31.4063
29.6438
38.1222
26.6993
25.0109
22.98
25.6566
24.3145
31.3782
32.1411
29.4802
28.9772
40.0545
32.5434
27.1153
46.0298
25.1799
25.6024
38.1484
15.3423
31.2532
35.4769
26.8278
28.0468
37.6168
33.715
27.7923
26.9913
38.2069
27.3275
37.0051
25.3591
35.0255
25.981
29.9144
35.8303
39.7305
23.0444
28.5087
35.3484
23.0137
41.0149
25.6066
28.9531
32.3368
26.0326
30.0998
23.823
42.662
27.3346
30.4252
31.3182
39.5384
15.3932
25.9031
30.5366
36.1065
26.4852
30.9933
26.9297
36.796
34.7433
33.7286
30.2296
29.5132
19.6076
34.1338
40.9208
25.9048
26.6694
36.2539
21.497
21.1679
32.4364
29.5075
39.5365
42.4379
29.9378
27.2552
38.5404
26.191
31.6727
41.0484
31.9476
27.17
29.5197
17.6994
33.4555
26.8971
26.399
38.6606
30.7517
31.2936
40.1863
27.0549
29.5869
42.3211
15.709
21.5325
27.6144
46.1266
33.7014
26.8513
27.2617
31.5996
31.5479
31.5526
34.7835
20.5921
27.2194
38.3186
29.909
31.1471
33.7578
33.3255
27.6942
30.4933
27.2282
21.4186
44.0815
13.6084
44.6649
28.63
36.6142
31.0252
35.7802
34.0999
28.2328
41.0539
42.1588
28.3657
27.6402
40.5371
29.8714
36.4603
26.7432
35.9806
22.5183
40.8417
28.5627
21.6745
33.5142
30.4061
15.681
36.5878
32.1707
34.8829
29.1072
29.6547
38.2035
28.5521
39.8734
34.6594
44.713
39.6841
28.3395
42.1365
28.6942
29.6645
19.346
41.3177
45.4695
33.4832
27.0559
32.737
31.2973
31.7138
39.0798
29.63
39.0614
23.0614
26.6949
28.742
32.0537
31.5872
43.0721
35.464
34.6825
31.9495
28.9087
21.2344
34.4631
41.6521
32.4501
21.5355
34.8939
29.8908
30.0187
44.3556
16.5122
29.7184
32.9054
27.1343
32.2159
40.0899
37.7611
41.3157
29.5646
44.0696
39.7452
38.6615
40.1725
40.6361
32.4111
25.3546
34.8087
30.9181
32.7628
24.1407
30.5704
44.9964
30.5612
34.9803
30.567
26.1073
33.744
36.6326
29.5219
34.758
38.0745
44.5087
34.424
33.9552
33.4778
42.9424
31.1716
33.5321
28.9607
45.0132
31.6401
30.0588
33.933
26.5207
32.8386
39.2593
41.1335
19.8792
34.4729
33.924
33.9412
32.0764
36.4718
34.852
37.4624
39.5671
32.2467
23.4569
22.3133
33.2317
35.9176
25.3487
34.7096
31.8211
33.4423
31.3849
33.1709
43.7064
32.8951
27.5719
36.6175
39.8622
30.9894
36.0542
34.3573
36.2121
35.8587
35.8388
39.294
41.3017
33.8121
31.276
29.5252
32.4662
30.2353
23.9339
19.9809
32.7173
32.7761
32.6761
35.2565
35.2424
37.3054
40.0454
37.6686
37.7194
32.4452
35.3275
25.1841
31.4815
37.9855
35.9892
36.2245
41.802
33.395
33.5013
34.4323
33.3031
21.0295
38.5292
26.8242
37.1345
37.0877
38.049
21.5524
41.2652
28.1833
23.7632
31.9939
37.2811
26.5224
38.5057
37.9628
37.5471
29.4845
37.1848
22.524
26.0641
37.6287
40.0904
38.8356
38.1949
20.8041
33.0009
22.7775
33.083
24.8968
39.3956
24.4551
26.621
39.0081
38.3124
21.6262
26.9526
26.9598
20.855
32.5846
39.1133
39.3806
23.2178
40.1292
24.2572
32.1926
22.9575
21.044
39.3473
39.5575
39.4443
27.5944
22.5437
39.02
39.4619
39.634
31.1692
25.0141
22.8209
39.4767
39.1801
37.172
26.6584
38.7343
30.577
39.2113
35.3015
38.4208
38.4392
38.5858
SCALARS friction float 1
LOOKUP_TABLE default
6.35519
6.38132
5.45433
5.32895
6.58609
5.2555
5.43775
5.34578
6.97719
7.13997
5.71836
5.6257
7.12828
7.64985
7.22563
7.63713
6.95221
6.11082
7.37775
8.3645
7.71883
8.03527
7.83537
6.72756
8.58778
8.12804
8.88108
8.32932
7.85674
8.51289
8.76625
8.7949
7.83623
8.53633
9.30724
8.48373
7.44897
8.97258
9.8319
8.98449
8.75846
8.43486
10.3312
9.99445
8.1733
9.88421
7.89908
9.86341
8.5102
9.39737
8.49897
10.7501
9.13919
9.46864
8.47067
9.48566
8.91958
10.6825
9.86891
10.035
9.86158
10.4602
11.4649
11.231
10.9833
8.62622
11.7166
11.3074
10.3524
8.939
10.7454
9.30025
10.0068
11.7561
11.4596
11.5326
9.22027
12.6716
15.6318
8.12122
9.91085
10.5508
9.34838
7.95907
9.68671
11.6641
6.99748
8.33642
9.65795
7.06566
13.9482
15.2412
10.4706
11.3038
8.36599
6.349
11.6407
9.20629
8.22
7.00876
7.97563
6.1566
13.3777
8.906
8.81708
6.25865
10.4075
11.0029
6.18296
8.21891
11.4369
13.3127
9.21179
7.60389
6.62356
6.36121
6.50508
10.1113
11.6466
7.02945
8.27678
7.77126
10.3429
7.88086
7.69969
11.1455
14.2307