# vtk DataFile Version 3.0
File generated from DClib
ASCII

DATASET UNSTRUCTURED_GRID
POINTS 2394 float
75 0 0 
74.0132 0 0 
75 1 0 
74.0132 1 0 
73.0263 0 0 
75 2 0 
72.9355 1.08748 0 
73.9223 2.08748 0 
72.0395 0 0 
75 3 0 
72.8446 2.17496 0 
71.9486 1.08748 0 
73.9223 3.08748 0 
71.0526 0 0 
75 4 0 
72.8838 3.58748 0 
71.5238 2.50694 0 
70.6278 1.41947 0 
73.9615 4.5 0 
70.0658 0 0 
75 5 0 
71.563 3.91947 0 
72.9229 5 0 
69.641 1.41947 0 
70.203 2.83893 0 
73.9615 5.5 0 
69.0789 0 0 
75 6 0 
69.1476 2.44434 0 
72.9229 6 0 
71.6239 5.5 0 
70.2639 4.41947 0 
68.5855 1.02487 0 
73.9615 6.5 0 
68.0921 0 0 
75 7 0 
68.0921 2.04975 0 
72.9229 7 0 
71.6239 6.5 0 
68.6542 3.74338 0 
67.5987 1.02487 0 
73.9615 7.5 0 
70.3248 6 0 
67.1053 0 0 
75 8 0 
67.5987 3.34878 0 
67.1053 2.04975 0 
68.7151 5.32391 0 
73.0785 8.1 0 
66.6118 1.02487 0 
74.1171 8.6 0 
66.1184 0 0 
75 9 0 
66.6118 3.34878 0 
66.1184 2.04975 0 
71.6239 8.5 0 
67.1053 4.64782 0 
69.1755 7.15213 0 
70.3248 8 0 
73.2341 9.2 0 
65.625 1.02487 0 
74.1171 9.6 0 
67.5657 6.47604 0 
65.1316 0 0 
75 10 0 
65.1316 2.04975 0 
71.7795 9.6 0 
73.0785 10.1 0 
64.6382 1.02487 0 
65.1137 3.65591 0 
73.9615 10.5 0 
65.6071 4.95495 0 
68.0262 8.30425 0 
69.1755 9.15213 0 
64.1447 0 0 
66.0569 6.38442 0 
75 11 0 
71.6239 10.5 0 
70.3248 10 0 
64.1447 2.04975 0 
72.9229 11 0 
63.6513 1.02487 0 
64.1268 3.65591 0 
73.9615 11.5 0 
66.5173 8.21264 0 
63.1579 0 0 
75 12 0 
63.1579 2.04975 0 
64.1089 5.26208 0 
73.0785 12.1 0 
67.2259 9.58662 0 
68.3752 10.4345 0 
62.6645 1.02487 0 
64.5587 6.69155 0 
63.14 3.65591 0 
74.1171 12.6 0 
62.1711 0 0 
65.0085 8.12102 0 
70.3248 12 0 
71.6239 12.5 0 
62.1711 2.04975 0 
75 13 0 
65.717 9.495 0 
68.9358 11.8258 0 
62.6466 4.95495 0 
73.2341 13.2 0 
61.6776 1.02487 0 
63.0969 6.3615 0 
74.1171 13.6 0 
61.6776 3.34878 0 
61.1842 0 0 
66.4255 10.869 0 
63.5467 7.79097 0 
61.1842 2.04975 0 
71.7795 13.6 0 
75 14 0 
73.0785 14.1 0 
60.6908 1.02487 0 
63.9359 9.23812 0 
73.9615 14.5 0 
61.1842 4.64782 0 
66.9861 12.2603 0 
61.6346 6.05437 0 
60.6908 3.34878 0 
70.3248 14 0 
60.1974 0 0 
64.6444 10.6121 0 
71.6239 14.5 0 
62.085 7.46091 0 
60.1974 2.04975 0 
75 15 0 
68.9358 13.8258 0 
72.9229 15 0 
59.7039 1.02487 0 
65.5009 12.0501 0 
62.4741 8.90807 0 
73.9615 15.5 0 
67.5467 13.6516 0 
59.2105 0 0 
60.2109 5.66149 0 
62.8633 10.3552 0 
60.6613 7.06804 0 
75 16 0 
59.1118 1.8996 0 
66.0615 13.4414 0 
69.4963 15.2171 0 
73.0785 16.1 0 
63.7198 11.7932 0 
59.2712 4.40082 0 
61.0276 8.51671 0 
58.6184 0.874731 0 
58.7778 3.10178 0 
68.1073 15.0429 0 
74.1171 16.6 0 
70.3248 16 0 
58.2237 0 0 
71.6239 16.5 0 
64.5763 13.2312 0 
61.4167 9.96386 0 
75 17 0 
66.6221 14.8327 0 
58.0263 1.74946 0 
59.2376 6.67516 0 
62.2346 11.583 0 
73.2341 17.2 0 
57.6316 0.874731 0 
59.6039 8.12383 0 
57.6923 2.95164 0 
58.2979 5.41449 0 
68.6678 16.4342 0 
74.1171 17.6 0 
65.1369 14.6226 0 
63.0911 13.0211 0 
57.2368 0 0 
59.9702 9.5725 0 
71.7795 17.6 0 
57.1382 1.8996 0 
75 18 0 
67.1826 16.2241 0 
69.4963 17.2171 0 
60.8215 11.2716 0 
57.3582 4.15382 0 
73.0785 18.1 0 
56.7434 1.02487 0 
63.6517 14.4124 0 
56.8041 3.10178 0 
57.8154 6.75019 0 
58.376 8.14151 0 
65.6974 16.0139 0 
73.9615 18.5 0 
61.6059 12.8109 0 
70.3248 18 0 
56.25 0 0 
71.6239 18.5 0 
56.25 2.04975 0 
58.7423 9.59018 0 
56.8757 5.48952 0 
75 19 0 
59.3749 10.8802 0 
67.7432 17.6154 0 
72.9229 19 0 
64.2122 15.8037 0 
62.1665 14.2022 0 
55.7566 1.02487 0 
60.1928 12.4994 0 
66.258 17.4052 0 
68.5717 18.3983 0 
73.9615 19.5 0 
55.7563 3.4912 0 
55.2632 0 0 
56.3932 6.82522 0 
56.9538 8.21654 0 
62.727 15.5935 0 
55.2022 2.43916 0 
57.5143 9.60785 0 
75 20 0 
64.7728 17.195 0 
60.6813 13.992 0 
58.147 10.8979 0 
73.0785 20.1 0 
58.7796 12.188 0 
55.3905 5.27933 0 
54.7088 1.41428 0 
66.8186 18.7965 0 
70.3248 20 0 
74.1171 20.6 0 
63.2876 16.9848 0 
61.2418 15.3833 0 
69.1323 19.7896 0 
54.2763 0 0 
71.6239 20.5 0 
59.2681 13.6806 0 
65.3334 18.5863 0 
75 21 0 
54.1544 2.82857 0 
55.4686 8.00635 0 
54.908 6.61503 0 
56.0291 9.39767 0 
73.2341 21.2 0 
53.7219 1.41428 0 
56.5897 10.789 0 
61.8024 16.7746 0 
57.2224 12.079 0 
63.8482 18.3761 0 
59.7566 15.1731 0 
67.3791 20.1878 0 
74.1171 21.6 0 
53.7886 4.61671 0 
53.2895 0 0 
71.7795 21.6 0 
57.7829 13.4704 0 
53.2285 2.43916 0 
65.8939 19.9776 0 
75 22 0 
62.363 18.1659 0 
60.3172 16.5644 0 
73.0785 22.1 0 
52.7961 1.02487 0 
53.9834 7.79616 0 
54.5439 9.18748 0 
64.4087 19.7674 0 
58.2714 14.9629 0 
70.3248 22 0 
53.4228 6.40485 0 
73.9615 22.5 0 
55.1045 10.5788 0 
69.1323 21.7896 0 
52.7351 3.7382 0 
52.3026 0 0 
67.9397 21.5791 0 
55.6651 11.9701 0 
71.6239 22.5 0 
52.3026 2.04975 0 
60.8778 17.9557 0 
62.9235 19.5573 0 
58.832 16.3542 0 
75 23 0 
66.4545 21.3689 0 
56.2257 13.3614 0 
72.9229 23 0 
51.8092 1.02487 0 
52.3693 5.52633 0 
64.9693 21.1588 0 
51.8092 3.34878 0 
56.7862 14.7527 0 
73.9615 23.5 0 
61.4383 19.3471 0 
59.3926 17.7456 0 
51.4145 1.8996 0 
51.3158 0 0 
53.0587 8.97729 0 
52.4982 7.58597 0 
53.6193 10.3686 0 
71.2128 23.5672 0 
63.4841 20.9486 0 
54.1799 11.7599 0 
57.3468 16.1441 0 
75 24 0 
50.9211 0.874731 0 
51.3158 4.64782 0 
54.7405 13.1512 0 
72.5118 24.0672 0 
69.5776 23.6331 0 
50.9211 3.19864 0 
68.385 23.4226 0 
59.9531 19.1369 0 
61.9989 20.7384 0 
55.301 14.5426 0 
57.9074 17.5354 0 
51.4447 6.70746 0 
67.1321 23.2061 0 
50.5263 1.74946 0 
73.5504 24.5672 0 
50.3289 0 0 
65.6469 22.9959 0 
55.8616 15.9339 0 
75 25 0 
51.5735 8.7671 0 
52.1341 10.1584 0 
49.9342 0.874731 0 
52.6947 11.5497 0 
60.5137 20.5282 0 
58.4679 18.9267 0 
72.1008 25.1344 0 
53.2553 12.941 0 
49.8355 3.34878 0 
56.4222 17.3252 0 
53.8158 14.3324 0 
70.4655 25.2003 0 
73.5504 25.5672 0 
49.4408 1.8996 0 
49.3421 0 0 
63.815 23.2124 0 
59.0285 20.318 0 
49.9595 6.49727 0 
54.3764 15.7237 0 
61.0743 21.9195 0 
56.9827 18.7165 0 
75 26 0 
68.8303 25.2661 0 
49.3989 5.10595 0 
67.5774 25.0496 0 
48.8487 1.02487 0 
62.3298 23.0022 0 
50.6489 9.94823 0 
66.3246 24.8331 0 
50.0883 8.55691 0 
51.2095 11.3395 0 
54.937 17.115 0 
51.7701 12.7309 0 
72.4347 26.4726 0 
59.5891 21.7093 0 
57.5433 20.1078 0 
48.3553 0 0 
52.3306 14.1222 0 
48.3553 2.04975 0 
70.9797 26.4993 0 
55.4975 18.5063 0 
73.8843 26.9053 0 
75 27 0 
52.8912 15.5135 0 
47.8618 1.02487 0 
69.3444 26.5651 0 
64.4926 25.0496 0 
58.1039 21.4991 0 
47.9186 3.80692 0 
53.4518 16.9048 0 
68.3162 26.5651 0 
60.1497 23.1006 0 
56.0581 19.8976 0 
67.0633 26.3486 0 
49.1637 9.73804 0 
49.7243 11.1294 0 
47.3684 0 0 
48.6031 8.34672 0 
50.2849 12.5207 0 
47.3684 2.04975 0 
61.4051 24.1834 0 
66.035 26.3486 0 
48.0426 6.9554 0 
54.0123 18.2961 0 
50.8454 13.912 0 
72.7686 27.8107 0 
73.8843 27.9053 0 
75 28 0 
47.482 5.56409 0 
71.3136 27.8374 0 
62.6606 25.2661 0 
58.6645 22.8904 0 
51.406 15.3033 0 
56.6187 21.2889 0 
46.875 1.02487 0 
46.9318 3.80692 0 
69.8586 27.8642 0 
54.5729 19.6874 0 
51.9666 16.6946 0 
68.8303 27.8642 0 
46.3816 0 0 
64.203 26.5651 0 
46.3816 2.04975 0 
67.802 27.8642 0 
57.1793 22.6803 0 
52.5271 18.0859 0 
48.2391 10.9192 0 
59.6464 24.5 0 
47.6785 9.52785 0 
48.7997 12.3105 0 
72.856 28.9053 0 
75 29 0 
73.9717 29 0 
47.1179 8.13653 0 
66.7737 27.8642 0 
49.3602 13.7018 0 
71.8278 28.9053 0 
45.8882 1.02487 0 
60.9019 25.5828 0 
46.5574 6.74521 0 
49.9208 15.0931 0 
63.0719 26.7325 0 
70.3727 28.9321 0 
53.0877 19.4772 0 
65.7455 27.8642 0 
69.3444 28.9321 0 
62.1465 26.5651 0 
50.4814 16.4844 0 
58.1612 24.2899 0 
45.3947 0 0 
45.7749 5.05301 0 
45.3947 2.04975 0 
68.3162 28.9321 0 
54.7594 21.7738 0 
51.4788 18.4418 0 
64.6143 28.0315 0 
67.2879 28.9321 0 
45.2247 3.29583 0 
75 30 0 
73.9717 30 0 
72.9434 30 0 
44.9013 1.02487 0 
71.9152 30 0 
46.7539 10.709 0 
47.3145 12.1003 0 
66.2596 28.9321 0 
46.1933 9.31766 0 
70.8869 30 0 
47.875 13.4916 0 
52.0394 19.8331 0 
59.1432 25.8994 0 
55.3199 23.1651 0 
45.6327 7.92634 0 
69.8586 30 0 
48.4356 14.8829 0 
63.4832 28.1989 0 
65.2313 28.9321 0 
44.4079 0 0 
60.3877 26.8818 0 
53.2742 21.5636 0 
68.8303 30 0 
44.4079 2.04975 0 
62.5578 28.0315 0 
48.9962 16.2742 0 
56.4771 24.5037 0 
44.8502 6.23413 0 
67.802 30 0 
61.6323 27.8642 0 
44.2378 3.29583 0 
49.9936 18.2316 0 
64.1002 29.0994 0 
43.9145 1.02487 0 
66.7737 30 0 
59.3793 26.9231 0 
44.0678 4.54192 0 
50.991 20.1889 0 
60.6239 27.9055 0 
65.7455 30 0 
63.0719 29.0994 0 
57.4591 26.1133 0 
45.8292 11.8901 0 
45.2687 10.4988 0 
46.3898 13.2814 0 
43.4211 0 0 
52.2258 21.9194 0 
44.7081 9.10747 0 
43.4211 2.04975 0 
46.9504 14.6727 0 
62.1465 28.9321 0 
58.4385 27.0222 0 
64.7172 30 0 
44.1475 7.71616 0 
47.511 16.0641 0 
59.6155 27.9468 0 
43.251 3.29583 0 
53.4606 23.65 0 
63.6889 30 0 
42.9276 1.02487 0 
61.1182 28.9321 0 
48.0715 17.4554 0 
43.365 6.02395 0 
54.6178 24.9885 0 
49.069 19.4127 0 
62.6606 30 0 
58.6747 28.0459 0 
50.8222 21.6733 0 
42.4342 0 0 
60.1098 28.9734 0 
55.775 26.3271 0 
42.4342 2.04975 0 
52.057 23.4039 0 
56.7544 27.236 0 
44.344 11.6799 0 
49.6295 20.804 0 
44.9046 13.0712 0 
61.6323 30 0 
43.7834 10.2886 0 
45.4652 14.4625 0 
43.2228 8.89729 0 
57.7339 28.1449 0 
46.0258 15.8539 0 
59.1213 28.9734 0 
41.9408 1.02487 0 
42.6622 7.50598 0 
46.5863 17.2452 0 
60.604 30 0 
55.9067 27.3302 0 
52.3471 24.5393 0 
53.1846 25.3346 0 
47.1469 18.6365 0 
41.7707 4.59487 0 
56.8861 28.2391 0 
41.4474 0 0 
58.1804 29.0725 0 
50.6533 23.1578 0 
41.3487 1.8996 0 
59.6155 30 0 
54.3417 26.6731 0 
55.1468 27.4186 0 
47.7075 20.0278 0 
49.4607 22.2884 0 
57.2873 29.0725 0 
56.0384 28.3333 0 
43.4194 12.861 0 
42.8588 11.4697 0 
43.98 14.2524 0 
40.8553 0.874731 0 
58.627 30 0 
50.9434 24.2932 0 
40.9539 3.34878 0 
42.2982 10.0784 0 
44.5406 15.6437 0 
48.2681 21.4191 0 
41.7376 8.68711 0 
45.1011 17.035 0 
41.068 6.0769 0 
40.4605 0 0 
56.4396 29.1666 0 
55.2785 28.4216 0 
41.177 7.2958 0 
57.7339 30 0 
45.6617 18.4263 0 
40.2632 1.74946 0 
51.2336 25.4286 0 
52.071 26.2239 0 
52.9085 27.0192 0 
46.2223 19.8176 0 
49.2716 23.6764 0 
53.7135 27.7646 0 
55.6371 29.1666 0 
56.8408 30 0 
54.5186 28.51 0 
39.8684 0.874731 0 
[...]
POINT_DATA 2394
SCALARS cohesion float 1
LOOKUP_TABLE default
20.0424
19.9126
26.6861
27.5458
19.0239
42.3066
28.7289
43.9005
19.5428
46.3522
46.7944
29.4005
47.4559
18.4404
43.8405
47.7978
50.9902
35.2325
43.2359
18.6821
42.7672
46.1742
44.0282
35.082
52.7579
49.3109
18.7816
50.1082
49.2138
51.8308
52.2266
45.3573
28.9329
46.1569
19.8427
42.8697
44.3122
45.0722
47.7753
42.8593
28.3326
45.4758
52.5651
19.4014
47.2467
43.4669
42.3122
49.1268
47.0816
27.7242
39.8822
19.8618
33.3472
39.0117
42.5424
42.4495
38.685
49.6524
50.8856
31.5564
26.9743
28.6722
45.3518
19.4649
28.4217
39.5042
28.0862
28.6639
26.8437
33.4905
29.64
36.8292
51.3433
35.1277
19.7789
43.6419
28.5992
30.7339
29.6224
37.8795
28.438
26.8373
33.0299
26.228
47.4068
19.8466
25.3811
37.6402
36.0234
25.1699
29.8959
29.5267
27.1408
40.7431
30.5969
26.5214
20.7057
46.782
22.3212
23.7949
38.5079
28.9351
31.0428
21.7657
31.559
29.1257
28.0638
39.2462
32.7305
32.1679
20.8679
27.066
44.3232
37.8991
30.2309
36.3089
35.4816
29.3565
32.9151
36.7213
27.9935
19.4337
41.0913
32.9075
33.3498
21.954
26.959
34.9944
40.4451
39.0418
33.4862
28.0752
32.5245
30.5976
19.0868
36.9299
28.3927
26.1634
22.6296
39.5499
27.5883
38.3346
25.1556
40.2086
24.1129
27.9575
24.5498
19.3869
28.5398
42.7734
30.4931
36.0492
28.2483
23.2721
21.9361
24.1549
21.3256
21.5096
27.8633
23.1205
29.4697
41.3627
39.4797
19.5762
21.4691
31.637
46.861
38.4504
37.1413
20.1443
20.8656
30.7798
19.9241
24.265
30.445
18.6301
43.7336
21.3192
22.1334
17.4573
21.9438
27.6089
20.6228
34.0915
30.4297
37.4373
40.765
46.3275
24.2845
23.8878
18.8704
18.0608
24.9291
21.9457
45.6454
32.5706
40.1855
26.8207
25.9754
17.3543
25.9068
26.0952
30.0266
35.6804
18.4866
18.0721
19.0705
26.2004
34.3354
24.0718
38.7704
47.6836
27.4283
44.4716
33.4548
24.8646
19.453
28.2318
25.3019
24.4395
17.895
31.7568
40.8144
20.6937
21.4293
27.1509
21.0185
28.324
20.8851
24.5163
24.3348
26.5027
19.4249
31.6661
43.9385
46.8028
38.3597
35.8343
32.5414
41.4518
26.7755
21.1756
19.5377
17.8193
29.7
21.3651
35.2571
24.4798
24.7807
32.7972
26.115
46.5972
21.5093
34.8989
16.0002
22.2909
32.1518
37.4778
43.1874
37.5685
21.3898
31.1144
31.2559
39.0777
28.2506
28.4268
29.5638
29.3286
26.2926
31.2354
19.7389
24.6271
50.2935
14.431
20.4119
23.04
24.4332
30.7535
25.6784
22.3241
37.2727
27.7777
33.2168
35.4309
32.6959
21.4689
19.9748
14.6528
50.6605
26.6346
38.2295
40.0093
28.1561
18.2281
30.4281
20.1698
23.9762
21.969
35.7245
19.5855
24.4591
19.8546
16.7604
38.1472
16.5179
18.0196
27.1641
32.7329
16.028
33.3258
17.5675
51.4028
21.9587
27.433
18.5582
25.6686
23.9606
38.8252
28.212
36.2346
19.9622
21.9261
17.0476
22.5716
22.4474
35.5555
18.7352
31.3039
21.2748
25.9154
53.737
27.1357
18.3048
21.0689
31.9365
25.5846
26.2393
17.0658
28.8167
20.4165
19.7715
18.7962
38.6346
19.285
28.4567
17.7389
37.3014
20.3435
21.9738
20.4095
25.6647
27.5116
21.7838
27.4378
28.2191
60.8282
23.7063
17.8841
25.7319
24.8308
25.1481
38.0161
21.8338
18.9469
27.1121
28.9502
23.9491
21.2912
16.131
23.1943
21.3739
29.2914
21.5855
27.2808
37.634
19.4109
61.0967
15.872
21.5263
34.1382
19.4953
25.6976
20.0331
21.9768
22.9045
21.6548
18.8769
20.2991
17.6301
23.8741
28.3167
37.5313
29.1172
16.9833
25.5873
24.1142
16.8098
26.6511
21.1353
59.8665
15.5582
19.4158
20.9645
23.8964
17.8312
31.3057
19.4454
23.0537
23.4666
23.586
37.4806
15.7326
23.4961
22.4073
37.6284
21.9249
34.0589
22.8885
18.7581
21.3803
27.3118
14.706
20.7877
20.6868
22.9177
17.4182
25.2806
18.8646
53.3833
20.5439
29.6316
23.4779
16.3688
20.5415
37.3041
19.8461
19.6319
18.3213
36.6157
18.2575
27.4497
20.6402
20.7673
32.9076
17.0528
23.2318
30.236
22.7232
18.724
38.1227
17.3206
23.1108
17.5459
21.2803
24.8666
18.6293
31.4429
16.5451
53.0493
16.439
22.2031
18.6486
31.5944
17.0491
15.0599
37.0608
23.731
21.6286
35.0668
16.5447
17.5659
17.5714
33.2517
16.4914
17.3091
22.1576
23.3196
22.9719
30.8261
23.7951
23.72
30.1112
34.8516
49.9098
24.0502
22.7517
17.9655
17.2143
39.0903
20.3791
16.7312
36.1895
17.6231
18.5247
33.9324
23.0201
24.6369
30.1457
21.1793
31.3111
18.3055
17.637
32.4561
23.4187
23.524
24.1029
48.2793
19.9998
17.1728
24.8458
33.68
24.5639
19.3059
33.2688
25.9469
35.3092
18.5319
19.7661
24.3018
32.1926
38.9902
26.3979
19.6387
16.6152
21.0114
22.8655
27.0466
19.1574
20.861
22.7454
25.1847
21.2047
45.4872
20.7338
21.6185
16.946
34.5375
28.7624
25.5532
22.7023
24.8301
26.7522
26.2258
28.8597
20.757
21.7219
33.3846
32.9891
20.3488
35.7984
35.7332
25.4071
32.6009
22.7724
25.9732
23.9425
37.7102
21.7747
27.1556
41.7969
22.7313
22.8356
19.0726
35.7439
22.0151
17.4565
26.3534
22.2972
25.8191
27.9205
33.9551
26.1095
36.6918
23.5379
25.6617
26.9607
18.5044
20.306
23.3399
26.5807
21.551
22.5879
26.4835
31.3519
24.6038
41.3927
36.1697
26.8063
18.6955
21.4874
18.0234
16.3258
23.7096
33.6268
26.4759
23.6979
37.5353
28.5049
27.0652
36.2952
31.6559
28.9142
24.4255
23.1661
37.1289
26.5157
27.3863
20.9681
41.1627
23.3071
23.7994
22.0826
20.6741
24.7346
26.3649
27.2622
21.3305
27.479
20.9548
15.2081
18.3339
29.6725
25.9963
23.7317
28.5351
24.9503
26.2306
27.7816
26.1613
35.5382
33.4063
38.8094
26.4989
22.1633
23.8236
24.6353
36.2056
25.1502
19.4031
25.7823
26.1649
37.6014
34.4995
22.6071
23.4469
26.5947
17.2064
16.5759
25.1031
25.893
31.2517
21.2444
20.4507
26.3228
20.3331
18.467
28.0308
24.9191
24.8848
25.5599
22.6569
28.572
30.3355
37.5699
25.837
24.2412
16.1979
22.3987
24.9606
19.1838
39.7704
24.6849
37.3705
24.8025
25.3694
35.3864
27.3624
19.8254
35.1855
29.0723
25.4322
24.8436
25.2729
24.8429
30.3148
16.4172
24.8519
18.2176
24.7595
19.9424
25.1543
23.4959
25.0703
23.8587
19.954
19.8428
16.9816
24.63
19.8729
24.9978
23.4014
19.1287
36.1533
24.9815
28.2137
26.9428
25.4689
29.3968
24.6773
39.0739
27.3022
24.9025
16.9259
25.0731
21.9583
24.9546
33.5351
15.7265
24.8179
24.558
25.0051
26.6726
24.8854
17.6026
25.083
32.6569
32.319
29.7647
25.9326
24.5969
22.382
19.0051
25.0991
24.8548
25.0456
24.7658
21.9333
24.594
15.8637
24.8813
28.0572
20.0817
24.7928
24.8875
36.6937
24.6342
25.0174
15.7418
25.1294
20.1004
15.7004
24.8734
25.5721
23.752
18.7985
22.9163
21.1131
24.9458
16.5358
24.62
25.0216
20.6839
30.1663
24.6891
24.8827
30.9307
19.5135
24.9401
24.6232
25.0123
32.325
25.1383
26.1062
24.8635
24.4736
20.4717
25.0098
24.6868
18.0502
27.9872
24.9167
30.8879
23.7401
39.9514
25.0316
24.7112
16.2688
25.0924
24.9256
25.1053
25.0987
25.8774
24.7608
22.6967
21.964
15.5802
25.1263
24.9685
19.7921
28.725
35.4286
24.8106
25.1874
25.2949
20.7705
25.185
25.0115
25.2311
25.2111
24.8633
25.4207
25.0422
18.2162
25.3853
24.9242
25.2998
27.8054
25.3366
16.6078
25.263
25.0838
24.7059
25.33
25.3556
24.9853
20.0557
25.1179
25.349
26.1597
17.3678
34.5381
25.4186
25.0443
18.5183
25.3883
23.6236
23.9009
25.3981
25.143
31.8497
25.4264
25.5261
27.9044
25.4151
25.1089
25.1941
23.4117
26.1943
17.5076
25.1628
25.4663
25.1767
25.4422
25.5172
25.2259
25.5251
22.6987
25.2179
16.3166
25.4544
25.6055
22.912
25.2778
25.6214
32.4186
29.5482
16.7961
25.2618
25.4864
38.6486
25.6442
25.3333
25.6486
25.6464
25.2959
25.5216
20.1995
25.3858
25.3818
35.1808
25.3297
25.5641
25.7292
21.8121
25.4304
25.2178
25.7233
25.3775
27.9742
25.8326
25.2716
25.7995
25.4803
25.8794
25.438
25.1867
25.5816
25.1483
25.9148
25.9194
25.5033
25.6712
25.2254
25.1742
26.0266
25.5698
22.0967
16.6382
25.2758
25.7504
25.3764
26.1682
27.4026
26.0997
25.6457
26.7538
26.1501
25.4408
25.1989
25.8641
25.3247
25.2547
26.1917
25.7327
25.3251
18.8734
26.0342
25.4944
26.2734
40.0656
25.8107
25.3886
24.8932
26.3615
32.0641
26.4624
25.5824
25.3545
26.1688
26.4514
25.3266
25.5056
26.4937
19.8925
25.4511
25.9096
20.0386
29.0347
26.5408
25.3687
26.277
25.5876
26.0321
25.9447
26.6657
25.4523
19.3391
23.2063
27.1017
26.4474
25.6903
25.641
26.7904
26.1736
16.4476
26.834
33.1813
25.8623
25.5019
16.5953
26.6858
26.3096
25.5998
26.985
27.1592
37.423
25.9901
26.8456
29.9136
27.132
21.6207
28.0369
35.5095
26.8689
25.7625
26.5596
26.4771
27.332
27.4667
26.1159
27.446
26.1376
25.8634
27.0263
28.4961
26.6815
29.0874
24.8948
26.0229
30.3181
27.211
26.2736
27.5978
26.0014
27.7281
27.8204
27.2731
26.891
17.2976
26.2614
26.4189
27.9418
26.9669
26.1544
27.6638
27.9715
22.3947
27.1025
26.5656
26.5582
32.8635
26.6017
37.7458
28.3264
26.3535
19.7683
34.0575
27.9136
31.1023
27.3329
28.5759
28.4041
35.642
25.1474
26.8005
26.6403
28.85
28.8055
31.3917
19.2486
28.1766
21.8684
27.6154
27.854
36.4311
27.0136
18.0526
26.9572
29.2691
34.2354
28.5051
28.4203
22.7704
18.2035
27.8936
27.2658
30.9101
27.9205
28.3538
31.5938
31.3862
27.4294
30.0187
38.1448
29.6431
29.9415
25.2041
29.0296
29.1859
28.1737
30.4276
27.6187
35.6299
27.8339
20.3998
27.6224
30.2831
37.4784
26.3508
30.3449
29.4556
28.5167
20.2177
27.9732
28.5603
35.5365
32.9936
19.4709
24.7018
32.3827
31.0445
29.9512
30.8598
28.815
31.0197
28.45
39.2167
38.3555
29.3953
31.8426
36.7496
36.6657
33.8021
25.9174
28.6922
30.3506
31.8015
29.1477
29.2006
40.256
30.6791
20.0025
27.2704
35.6589
30.8062
29.615
32.8402
29.1719
30.0824
28.4906
31.4904
20.1695
30.5306
28.6581
32.6277
27.7488
33.8051
27.0019
20.8783
21.9719
33.7623
42.3745
36.2492
30.2999
30.8917
30.2595
31.1927
31.2023
16.5426
33.6611
33.1196
39.0224
34.7302
34.0491
40.2434
30.9324
32.6207
36.3718
29.1303
31.7606
33.6365
27.6378
37.3038
29.6019
32.3204
41.0666
34.6855
28.3974
33.185
34.1872
34.7156
39.3282
31.1181
32.076
35.9846
21.9208
32.1842
34.3099
30.8373
41.342
22.2306
36.6047
23.4511
20.2504
42.5159
37.2523
31.7863
30.6131
32.1814
33.2793
27.5965
32.9291
35.3013
17.5755
34.6889
31.7066
31.4223
28.7396
30.4776
32.2745
37.1708
35.5698
44.3644
40.8066
39.6067
30.661
23.4414
35.6053
34.0309
38.0105
34.6826
35.4496
42.2493
33.5392
44.5738
37.4541
36.9392
37.8978
43.8989
23.3513
29.8715
38.5242
37.15
30.7931
23.7705
26.2133
35.4375
32.5238
34.9275
20.8086
32.7004
41.5047
33.972
46.1979
20.6539
37.9445
43.0184
31.5105
31.3309
33.5551
35.255
39.7669
37.8154
35.512
18.8255
30.3925
38.0301
39.2352
33.4234
32.4798
45.3579
29.1815
47.9299
23.6757
38.4285
28.777
41.4467
30.2594
35.0756
34.0313
33.9019
34.3218
35.8695
32.4157
32.9379
41.6445
38.4084
28.7135
43.6769
32.4432
48.5726
41.4746
22.1013
34.1661
32.4207
31.14
46.2162
33.5512
21.7466
31.8439
37.4635
39.9312
37.2962
32.8595
17.9081
37.2032
46.2199
24.9432
39.8216
42.3431
34.0846
49.5035
39.6456
26.5849
31.4918
32.8228
32.522
32.1521
45.0765
30.5809
35.5893
34.5119
32.5178
32.3392
39.4788
33.2561
27.4108
29.9932
36.5525
38.2166
33.1527
38.6191
34.7219
47.2613
23.2375
35.2051
37.5545
43.4876
21.9092
33.0979
31.9555
49.7647
32.3365
24.8846
36.8011
34.1663
39.5365
42.0966
20.3663
35.385
34.5897
42.5256
40.6041
34.888
21.371
32.5397
36.5768
48.0448
33.9823
33.1214
30.2207
32.8777
49.1346
32.5868
35.6654
38.5502
37.915
29.3039
35.4655
27.4623
35.2006
31.1629
47.4504
31.3365
30.9894
33.9796
23.7793
25.736
33.393
39.1076
41.0989
21.8698
40.0458
34.0139
32.7214
34.3912
48.4515
35.2759
21.1504
42.3629
33.284
35.3141
25.5351
33.0168
18.8176
34.3222
30.7442
35.3244
40.2728
30.4064
34.9234
35.2046
35.367
34.5032
33.4321
31.7625
28.7353
33.0797
33.9615
35.1202
48.5086
37.293
40.6372
25.4069
38.7879
31.4952
28.6333
36.9081
23.0072
36.3207
34.3708
33.2918
32.6261
25.5839
36.4627
52.8981
20.6595
38.6836
34.1344
40.0093
34.4483
34.0607
36.0097
21.6256
34.2138
34.2034
36.1912
35.2018
18.487
34.0687
36.4672
47.0167
35.224
46.3767
28.4238
25.6926
39.2577
34.8315
34.9338
36.7036
30.559
24.6062
55.6681
26.124
33.112
38.559
35.2991
32.2048
39.3211
30.104
34.3083
34.1161
37.1877
38.0895
37.9784
38.3443
33.8072
39.3898
29.8665
36.8608
21.2007
42.4631
34.8376
35.1844
47.1734
27.6278
33.6288
41.6402
19.0821
45.3964
37.2561
20.1474
42.1559
57.151
37.0475
37.832
35.9817
32.2289
41.0193
32.0786
19.9475
36.3558
39.8301
40.3276
25.4072
39.9046
37.4546
34.0621
52.8858
22.0959
42.5872
41.5135
37.235
35.5027
36.4763
41.0972
30.8513
43.7667
30.9796
36.3774
40.7468
30.5601
51.6753
38.5532
26.1069
35.3634
32.9798
44.2622
32.9947
34.56
39.578
42.4564
35.8363
41.127
29.9876
23.3189
47.0709
37.4054
38.8963
40.2932
25.6671
38.0337
24.3396
36.45
34.1474
19.8617
43.2959
32.958
34.0021
32.71
39.5424
19.2916
37.7226
44.8472
48.6387
41.5936
25.6093
20.1373
35.6054
50.5973
38.75
35.4807
33.6912
44.2461
39.4803
40.8961
32.8508
34.7656
18.6455
46.8086
43.163
32.0487
42.8853
37.5094
33.678
28.9693
33.9886
32.0428
42.6351
43.3191
45.5791
36.2836
31.7667
27.6156
30.0844
39.701
30.3901
46.8873
35.0376
37.9028
38.8649
35.2949
25.0621
34.537
38.4682
40.233
40.6782
35.6484
37.4687
50.9383
31.4096
48.8652
41.6617
24.8793
31.1337
34.9946
40.1866
34.7381
21.1885
34.8265
46.6303
44.4274
25.3795
35.9441
35.2811
17.2883
45.7532
35.5755
31.12
37.3056
18.0695
40.5949
50.3024
33.6717
47.6931
36.3212
45.8641
32.8962
43.6555
17.9405
36.2929
30.9544
35.8918
31.1705
39.6861
36.5919
45.3564
43.6054
46.7655
25.0901
33.9281
32.7711
50.847
22.2802
38.1711
31.1201
36.7587
47.2856
35.8018
40.4411
33.4198
40.2123
45.4033
30.266
46.4558
30.5316
25.1161
50.5059
32.2932
34.3142
33.7746
49.2449
37.354
38.8655
30.9707
38.5806
44.2536
36.5643
46.1628
38.9814
41.0306
45.838
50.0888
32.1421
42.971
49.8839
21.2193
31.7431
33.567
28.9053
46.9869
30.8503
16.967
30.5339
32.9739
45.2611
29.9093
17.036
46.6388
50.3568
36.5317
50.0447
46.4344
17.4355
47.0749
40.5196
30.7164
35.0308
32.8194
38.186
35.9388
45.235
19.835
50.7611
33.131
51.6444
49.684
43.3839
30.5419
47.3699
40.7586
34.2038
24.7884
31.5235
31.1738
49.5577
24.6129
30.5136
33.6731
49.4496
43.3197
36.4923
33.4349
46.5337
24.1679
37.7412
31.3802
49.3308
28.5441
39.5225
30.4346
50.0299
39.0397
35.3736
42.4886
32.5323
45.7919
29.907
30.8879
56.4503
27.5484
30.3583
22.5956
33.1685
42.0451
32.5097
21.1471
28.2144
33.9159
16.3129
35.169
32.3679
41.2011
48.7157
30.7816
16.0304
34.9435
30.2575
36.2651
48.2979
39.6907
24.7688
39.2636
16.8419
42.9836
32.1652
30.6324
30.1505
33.0055
28.9802
28.1551
37.3019
33.7838
28.9392
41.449
50.2451
30.5097
30.0463
47.2697
53.7188
36.9316
30.87
36.7462
48.2301
42.1266
39.9666
32.6484
19.6086
29.9386
44.3288
30.767
35.3034
32.3482
31.5443
29.8299
31.5586
35.2068
46.4391
30.1805
18.1767
33.2548
27.5067
24.5306
30.585
26.14
29.7552
42.808
38.2133
40.3768
15.1583
31.3762
43.7402
30.0696
14.8585
29.6541
31.1186
48.0766
15.2402
29.9548
34.0342
33.7598
29.532
49.6502
30.3713
34.4963
23.864
26.3034
36.5092
30.8291
29.8269
33.1417
29.4328
35.2789
34.6324
30.4453
22.7192
33.3622
29.5927
29.3172
38.8205
30.6029
36.7714
35.5218
33.9375
46.807
29.4747
29.24
38.7025
25.4825
30.7218
41.129
29.4681
21.3927
40.6328
29.1214
31.1078
27.4859
36.1191
29.3167
26.9322
21.8245
31.3391
32.9486
44.4605
17.3804
29.0282
15.8309
29.4205
30.7784
37.4871
35.188
47.6374
24.0325
14.8077
28.9112
41.8065
30.8864
29.2717
47.2053
18.9466
36.1896
41.0106
28.7467
33.9447
28.3938
30.4504
32.4738
33.2289
33.902
28.9649
33.8371
43.1501
28.6209
25.5425
30.9363
36.2789
36.931
42.1199
20.1627
28.7925
31.5026
28.4719
28.2277
46.3291
28.9717
41.2889
35.8344
43.293
31.1226
28.3319
40.5279
22.8738
30.7964
42.0936
34.2924
21.4152
25.2933
28.1383
28.777
16.4241
35.7497
14.5652
28.1625
33.5296
30.0203
15.4808
36.7313
25.1535
28.3945
26.4717
40.7413
41.8521
34.388
28.7553
28.0904
37.2523
30.2345
40.84
22.8548
35.9039
28.2833
35.1649
41.5573
27.9727
38.9873
35.6058
30.4072
29.5937
32.0041
28.3144
44.31
40.2619
21.2673
27.943
31.0195
40.4217
35.0232
28.2878
44.3151
47.8479
31.4099
19.9043
27.8777
34.5606
35.2607
17.2869
31.5624
30.4443
27.3498
21.1301
16.052
43.3898
14.9873
35.9311
27.9179
22.1104
30.7405
39.9687
28.392
35.1862
35.0259
35.0586
32.36
33.3119
30.6003
43.7497
27.9332
32.5376
20.4179
32.0641
42.3267
28.4945
41.3305
36.6125
41.8003
36.2157
48.1355
27.4141
28.1099
31.93
36.8895
28.8104
40.3485
19.7536
28.7385
38.5162
39.6903
27.9678
22.0577
20.197
31.6534
17.9465
28.3211
37.1817
33.2678
14.9628
33.4265
38.7024
25.5619
17.2541
29.7744
50.5316
40.5484
31.0685
28.6658
23.3522
33.7029
32.9621
38.207
32.6626
36.7898
38.5268
30.4393
43.401
28.9009
24.9867
28.9729
43.8151
37.0974
20.6934
34.803
40.0433
31.2061
31.2467
35.7315
29.5462
19.1177
26.8176
19.8044
28.8521
18.3592
38.9485
42.2671
39.6108
17.3169
43.2099
16.1174
34.968
34.0323
31.8934
26.0082
29.8358
46.4711
34.1614
30.1899
29.6132
38.3146
32.5224
38.9439
25.9043
21.6388
34.8166
32.1717
38.6938
31.1587
37.8937
40.049
36.3235
29.2716
25.6402
54.4832
45.9223
35.9655
17.8356
33.0477
31.803
38.1925
33.319
41.1812
31.6449
41.4308
15.65
18.5366
19.2318
36.9279
29.565
16.2109
29.9444
40.1101
34.0317
36.7739
32.613
21.4268
34.7503
33.0938
31.0302
38.8738
42.7017
36.1008
22.8651
34.9492
26.4547
36.0473
33.3842
45.6679
43.3629
52.2167
22.0173
39.8482
24.6693
19.709
32.9817
36.465
41.3907
29.1923
34.3174
45.3531
30.3558
40.741
39.1342
23.1615
40.5298
41.9991
27.4373
23.5113
21.966
37.6526
34.9125
19.5426
40.8754
33.3358
35.6223
47.8959
16.5874
25.6482
41.5838
24.3706
28.9327
38.4838
29.6049
53.3958
36.169
35.7236
21.8365
32.6403
21.3191
29.7095
39.2711
33.4811
42.3709
17.946
41.2337
36.4415
47.7732
18.8254
28.5014
32.4193
36.9116
27.8497
35.9587
40.8236
22.5428
42.5673
20.9566
39.7387
31.13
32.3761
29.9297
29.353
45.8806
22.5437
16.1624
26.7155
37.6366
29.5499
41.1494
36.0492
41.8651
29.6305
19.5734
36.0421
20.6032
44.0447
31.0532
34.9407
38.5527
49.1128
28.9484
27.9498
41.9377
19.7589
22.4359
21.2908
29.3353
19.4842
29.4311
30.3364
38.6325
30.2574
40.2548
44.7148
29.2689
16.4134
19.2413
30.6037
42.5754
30.9048
20.039
17.7684
39.1558
22.7909
49.2261
24.9881
24.2017
28.0048
38.7759
43.664
28.1414
22.336
19.5162
22.5551
29.5311
32.9473
44.1178
20.9284
36.1315
42.448
35.344
30.285
36.006
39.3344
32.4626
37.7561
21.0442
18.2816
27.0545
29.844
43.7327
27.6886
17.9759
23.7355
43.1528
38.665
16.905
24.4779
42.1039
22.6908
30.7059
39.3096
15.9155
29.2535
32.473
18.7526
36.977
23.3843
43.193
43.4783
45.511
25.8946
30.8462
25.6023
20.1465
19.4914
40.9181
25.242
42.6987
31.9825
32.941
26.3895
41.9517
30.7356
39.2239
29.2123
21.2024
17.592
42.9226
23.9217
18.9846
22.4084
16.1705
33.4073
42.2015
26.2037
41.555
23.6386
17.1758
18.7941
39.1474
34.7557
19.8364
22.5608
26.6876
26.0721
27.613
28.9123
19.2438
41.8978
23.8497
41.2422
28.7786
17.0904
24.8829
29.759
38.9833
37.8563
29.442
15.9411
23.7879
20.3042
40.7054
33.626
41.1683
26.0001
38.7496
25.1135
25.446
28.5589
27.6437
25.9112
42.8781
31.9976
40.7637
40.2191
32.9142
24.1098
25.1317
26.4523
38.4056
25.8365
32.1506
24.8264
35.1653
36.3514
28.7942
40.859
33.5392
26.9872
37.9368
39.8057
39.5913
26.268
29.0053
31.148
40.5141
24.9108
27.3594
33.5065
38.7601
37.5605
39.0513
25.8091
26.6464
32.0413
33.0082
39.4023
27.9883
37.8958
30.8697
38.4011
36.9975
26.2301
28.5453
27.1896
35.4015
32.45
26.1778
28.4334
28.0904
36.7151
37.3822
36.2661
32.9686
27.6725
25.7145
29.0213
35.7241
26.7034
36.2292
35.4543
29.3087
32.1683
27.1643
34.9418
27.4266
34.8085
32.0001
31.1736
34.1201
34.6229
26.7069
31.1855
28.0052
29.3241
33.8955
33.5198
33.4178
26.4002
32.2727
27.1197
32.8314
33.6114
28.4939
32.5099
31.327
32.3602
29.1114
27.6776
30.5584
31.4389
31.6953
31.5024
28.9739
31.8438
30.601
31.0008
29.7006
29.2338
30.5636
30.5661
29.6118
29.5974
30.233
29.4869
29.9593
SCALARS friction float 1
LOOKUP_TABLE default
9.63033
9.7734
9.03262
8.89368
9.83935
6.93737
8.90978
6.85206
9.95107
7.92166
6.44411
9.05376
8.32485
10.5036
10.5762
9.81099
6.91279
8.5966
10.2492
11.1793
8.53071
11.0392
8.91952
9.14521
7.90825
6.78239
10.9924
6.51413
7.78592
6.56455
6.63416
11.3716
10.6567
7.9169
11.0642
8.89792
8.39297
9.38935
8.33699
13.0628
11.3037
9.33555
6.19849
11.151
9.03703
11.5216
8.82756
7.37649
8.8165
12.0072
8.42999
11.4609
8.15084
13.0167
8.48333
8.60669
11.2122
9.20972
9.46205
7.95506
12.5364
8.00605
8.34009
11.477
7.98531
9.53683
8.0779
8.11589
12.6113
13.8358
8.27311
9.42653
9.38534
8.25707
11.8241
7.68107
8.98524
8.73921
7.4355
9.66918
9.38843
12.5534
12.6425
10.2212
9.89469
11.2634
10.5343
9.52594
7.59822
10.3611
8.3111
8.91127
12.2317
7.50999
12.6262
9.22829
11.0516
9.60438
12.1371
10.6886
8.73199
8.07962
8.37298
12.7151
8.16167
7.91301
11.5448
6.39948
7.36812
10.7679
10.4929
9.96712
8.91952
8.88468
7.88144
7.12158
7.47721
10.7369
8.63699
7.74937
8.88514
13.1912
5.05548
9.76819