# vtk DataFile Version 3.0
File generated from DClib
ASCII

DATASET UNSTRUCTURED_GRID
POINTS 2394 float
75 0 0 
74.0132 0 0 
75 1 0 
74.0132 1 0 
73.0263 0 0 
75 2 0 
72.9355 1.08748 0 
73.9223 2.08748 0 
72.0395 0 0 
75 3 0 
72.8446 2.17496 0 
71.9486 1.08748 0 
73.9223 3.08748 0 
71.0526 0 0 
75 4 0 
72.8838 3.58748 0 
71.5238 2.50694 0 
70.6278 1.41947 0 
73.9615 4.5 0 
70.0658 0 0 
75 5 0 
71.563 3.91947 0 
72.9229 5 0 
69.641 1.41947 0 
70.203 2.83893 0 
73.9615 5.5 0 
69.0789 0 0 
75 6 0 
69.1476 2.44434 0 
72.9229 6 0 
71.6239 5.5 0 
70.2639 4.41947 0 
68.5855 1.02487 0 
73.9615 6.5 0 
68.0921 0 0 
75 7 0 
68.0921 2.04975 0 
72.9229 7 0 
71.6239 6.5 0 
68.6542 3.74338 0 
67.5987 1.02487 0 
73.9615 7.5 0 
70.3248 6 0 
67.1053 0 0 
75 8 0 
67.5987 3.34878 0 
67.1053 2.04975 0 
68.7151 5.32391 0 
73.0785 8.1 0 
66.6118 1.02487 0 
74.1171 8.6 0 
66.1184 0 0 
75 9 0 
66.6118 3.34878 0 
66.1184 2.04975 0 
71.6239 8.5 0 
67.1053 4.64782 0 
69.1755 7.15213 0 
70.3248 8 0 
73.2341 9.2 0 
65.625 1.02487 0 
74.1171 9.6 0 
67.5657 6.47604 0 
65.1316 0 0 
75 10 0 
65.1316 2.04975 0 
71.7795 9.6 0 
73.0785 10.1 0 
64.6382 1.02487 0 
65.1137 3.65591 0 
73.9615 10.5 0 
65.6071 4.95495 0 
68.0262 8.30425 0 
69.1755 9.15213 0 
64.1447 0 0 
66.0569 6.38442 0 
75 11 0 
71.6239 10.5 0 
70.3248 10 0 
64.1447 2.04975 0 
72.9229 11 0 
63.6513 1.02487 0 
64.1268 3.65591 0 
73.9615 11.5 0 
66.5173 8.21264 0 
63.1579 0 0 
75 12 0 
63.1579 2.04975 0 
64.1089 5.26208 0 
73.0785 12.1 0 
67.2259 9.58662 0 
68.3752 10.4345 0 
62.6645 1.02487 0 
64.5587 6.69155 0 
63.14 3.65591 0 
74.1171 12.6 0 
62.1711 0 0 
65.0085 8.12102 0 
70.3248 12 0 
71.6239 12.5 0 
62.1711 2.04975 0 
75 13 0 
65.717 9.495 0 
68.9358 11.8258 0 
62.6466 4.95495 0 
73.2341 13.2 0 
61.6776 1.02487 0 
63.0969 6.3615 0 
74.1171 13.6 0 
61.6776 3.34878 0 
61.1842 0 0 
66.4255 10.869 0 
63.5467 7.79097 0 
61.1842 2.04975 0 
71.7795 13.6 0 
75 14 0 
73.0785 14.1 0 
60.6908 1.02487 0 
63.9359 9.23812 0 
73.9615 14.5 0 
61.1842 4.64782 0 
66.9861 12.2603 0 
61.6346 6.05437 0 
60.6908 3.34878 0 
70.3248 14 0 
60.1974 0 0 
64.6444 10.6121 0 
71.6239 14.5 0 
62.085 7.46091 0 
60.1974 2.04975 0 
75 15 0 
68.9358 13.8258 0 
72.9229 15 0 
59.7039 1.02487 0 
65.5009 12.0501 0 
62.4741 8.90807 0 
73.9615 15.5 0 
67.5467 13.6516 0 
59.2105 0 0 
60.2109 5.66149 0 
62.8633 10.3552 0 
60.6613 7.06804 0 
75 16 0 
59.1118 1.8996 0 
66.0615 13.4414 0 
69.4963 15.2171 0 
73.0785 16.1 0 
63.7198 11.7932 0 
59.2712 4.40082 0 
61.0276 8.51671 0 
58.6184 0.874731 0 
58.7778 3.10178 0 
68.1073 15.0429 0 
74.1171 16.6 0 
70.3248 16 0 
58.2237 0 0 
71.6239 16.5 0 
64.5763 13.2312 0 
61.4167 9.96386 0 
75 17 0 
66.6221 14.8327 0 
58.0263 1.74946 0 
59.2376 6.67516 0 
62.2346 11.583 0 
73.2341 17.2 0 
57.6316 0.874731 0 
59.6039 8.12383 0 
57.6923 2.95164 0 
58.2979 5.41449 0 
68.6678 16.4342 0 
74.1171 17.6 0 
65.1369 14.6226 0 
63.0911 13.0211 0 
57.2368 0 0 
59.9702 9.5725 0 
71.7795 17.6 0 
57.1382 1.8996 0 
75 18 0 
67.1826 16.2241 0 
69.4963 17.2171 0 
60.8215 11.2716 0 
57.3582 4.15382 0 
73.0785 18.1 0 
56.7434 1.02487 0 
63.6517 14.4124 0 
56.8041 3.10178 0 
57.8154 6.75019 0 
58.376 8.14151 0 
65.6974 16.0139 0 
73.9615 18.5 0 
61.6059 12.8109 0 
70.3248 18 0 
56.25 0 0 
71.6239 18.5 0 
56.25 2.04975 0 
58.7423 9.59018 0 
56.8757 5.48952 0 
75 19 0 
59.3749 10.8802 0 
67.7432 17.6154 0 
72.9229 19 0 
64.2122 15.8037 0 
62.1665 14.2022 0 
55.7566 1.02487 0 
60.1928 12.4994 0 
66.258 17.4052 0 
68.5717 18.3983 0 
73.9615 19.5 0 
55.7563 3.4912 0 
55.2632 0 0 
56.3932 6.82522 0 
56.9538 8.21654 0 
62.727 15.5935 0 
55.2022 2.43916 0 
57.5143 9.60785 0 
75 20 0 
64.7728 17.195 0 
60.6813 13.992 0 
58.147 10.8979 0 
73.0785 20.1 0 
58.7796 12.188 0 
55.3905 5.27933 0 
54.7088 1.41428 0 
66.8186 18.7965 0 
70.3248 20 0 
74.1171 20.6 0 
63.2876 16.9848 0 
61.2418 15.3833 0 
69.1323 19.7896 0 
54.2763 0 0 
71.6239 20.5 0 
59.2681 13.6806 0 
65.3334 18.5863 0 
75 21 0 
54.1544 2.82857 0 
55.4686 8.00635 0 
54.908 6.61503 0 
56.0291 9.39767 0 
73.2341 21.2 0 
53.7219 1.41428 0 
56.5897 10.789 0 
61.8024 16.7746 0 
57.2224 12.079 0 
63.8482 18.3761 0 
59.7566 15.1731 0 
67.3791 20.1878 0 
74.1171 21.6 0 
53.7886 4.61671 0 
53.2895 0 0 
71.7795 21.6 0 
57.7829 13.4704 0 
53.2285 2.43916 0 
65.8939 19.9776 0 
75 22 0 
62.363 18.1659 0 
60.3172 16.5644 0 
73.0785 22.1 0 
52.7961 1.02487 0 
53.9834 7.79616 0 
54.5439 9.18748 0 
64.4087 19.7674 0 
58.2714 14.9629 0 
70.3248 22 0 
53.4228 6.40485 0 
73.9615 22.5 0 
55.1045 10.5788 0 
69.1323 21.7896 0 
52.7351 3.7382 0 
52.3026 0 0 
67.9397 21.5791 0 
55.6651 11.9701 0 
71.6239 22.5 0 
52.3026 2.04975 0 
60.8778 17.9557 0 
62.9235 19.5573 0 
58.832 16.3542 0 
75 23 0 
66.4545 21.3689 0 
56.2257 13.3614 0 
72.9229 23 0 
51.8092 1.02487 0 
52.3693 5.52633 0 
64.9693 21.1588 0 
51.8092 3.34878 0 
56.7862 14.7527 0 
73.9615 23.5 0 
61.4383 19.3471 0 
59.3926 17.7456 0 
51.4145 1.8996 0 
51.3158 0 0 
53.0587 8.97729 0 
52.4982 7.58597 0 
53.6193 10.3686 0 
71.2128 23.5672 0 
63.4841 20.9486 0 
54.1799 11.7599 0 
57.3468 16.1441 0 
75 24 0 
50.9211 0.874731 0 
51.3158 4.64782 0 
54.7405 13.1512 0 
72.5118 24.0672 0 
69.5776 23.6331 0 
50.9211 3.19864 0 
68.385 23.4226 0 
59.9531 19.1369 0 
61.9989 20.7384 0 
55.301 14.5426 0 
57.9074 17.5354 0 
51.4447 6.70746 0 
67.1321 23.2061 0 
50.5263 1.74946 0 
73.5504 24.5672 0 
50.3289 0 0 
65.6469 22.9959 0 
55.8616 15.9339 0 
75 25 0 
51.5735 8.7671 0 
52.1341 10.1584 0 
49.9342 0.874731 0 
52.6947 11.5497 0 
60.5137 20.5282 0 
58.4679 18.9267 0 
72.1008 25.1344 0 
53.2553 12.941 0 
49.8355 3.34878 0 
56.4222 17.3252 0 
53.8158 14.3324 0 
70.4655 25.2003 0 
73.5504 25.5672 0 
49.4408 1.8996 0 
49.3421 0 0 
63.815 23.2124 0 
59.0285 20.318 0 
49.9595 6.49727 0 
54.3764 15.7237 0 
61.0743 21.9195 0 
56.9827 18.7165 0 
75 26 0 
68.8303 25.2661 0 
49.3989 5.10595 0 
67.5774 25.0496 0 
48.8487 1.02487 0 
62.3298 23.0022 0 
50.6489 9.94823 0 
66.3246 24.8331 0 
50.0883 8.55691 0 
51.2095 11.3395 0 
54.937 17.115 0 
51.7701 12.7309 0 
72.4347 26.4726 0 
59.5891 21.7093 0 
57.5433 20.1078 0 
48.3553 0 0 
52.3306 14.1222 0 
48.3553 2.04975 0 
70.9797 26.4993 0 
55.4975 18.5063 0 
73.8843 26.9053 0 
75 27 0 
52.8912 15.5135 0 
47.8618 1.02487 0 
69.3444 26.5651 0 
64.4926 25.0496 0 
58.1039 21.4991 0 
47.9186 3.80692 0 
53.4518 16.9048 0 
68.3162 26.5651 0 
60.1497 23.1006 0 
56.0581 19.8976 0 
67.0633 26.3486 0 
49.1637 9.73804 0 
49.7243 11.1294 0 
47.3684 0 0 
48.6031 8.34672 0 
50.2849 12.5207 0 
47.3684 2.04975 0 
61.4051 24.1834 0 
66.035 26.3486 0 
48.0426 6.9554 0 
54.0123 18.2961 0 
50.8454 13.912 0 
72.7686 27.8107 0 
73.8843 27.9053 0 
75 28 0 
47.482 5.56409 0 
71.3136 27.8374 0 
62.6606 25.2661 0 
58.6645 22.8904 0 
51.406 15.3033 0 
56.6187 21.2889 0 
46.875 1.02487 0 
46.9318 3.80692 0 
69.8586 27.8642 0 
54.5729 19.6874 0 
51.9666 16.6946 0 
68.8303 27.8642 0 
46.3816 0 0 
64.203 26.5651 0 
46.3816 2.04975 0 
67.802 27.8642 0 
57.1793 22.6803 0 
52.5271 18.0859 0 
48.2391 10.9192 0 
59.6464 24.5 0 
47.6785 9.52785 0 
48.7997 12.3105 0 
72.856 28.9053 0 
75 29 0 
73.9717 29 0 
47.1179 8.13653 0 
66.7737 27.8642 0 
49.3602 13.7018 0 
71.8278 28.9053 0 
45.8882 1.02487 0 
60.9019 25.5828 0 
46.5574 6.74521 0 
49.9208 15.0931 0 
63.0719 26.7325 0 
70.3727 28.9321 0 
53.0877 19.4772 0 
65.7455 27.8642 0 
69.3444 28.9321 0 
62.1465 26.5651 0 
50.4814 16.4844 0 
58.1612 24.2899 0 
45.3947 0 0 
45.7749 5.05301 0 
45.3947 2.04975 0 
68.3162 28.9321 0 
54.7594 21.7738 0 
51.4788 18.4418 0 
64.6143 28.0315 0 
67.2879 28.9321 0 
45.2247 3.29583 0 
75 30 0 
73.9717 30 0 
72.9434 30 0 
44.9013 1.02487 0 
71.9152 30 0 
46.7539 10.709 0 
47.3145 12.1003 0 
66.2596 28.9321 0 
46.1933 9.31766 0 
70.8869 30 0 
47.875 13.4916 0 
52.0394 19.8331 0 
59.1432 25.8994 0 
55.3199 23.1651 0 
45.6327 7.92634 0 
69.8586 30 0 
48.4356 14.8829 0 
63.4832 28.1989 0 
65.2313 28.9321 0 
44.4079 0 0 
60.3877 26.8818 0 
53.2742 21.5636 0 
68.8303 30 0 
44.4079 2.04975 0 
62.5578 28.0315 0 
48.9962 16.2742 0 
56.4771 24.5037 0 
44.8502 6.23413 0 
67.802 30 0 
61.6323 27.8642 0 
44.2378 3.29583 0 
49.9936 18.2316 0 
64.1002 29.0994 0 
43.9145 1.02487 0 
66.7737 30 0 
59.3793 26.9231 0 
44.0678 4.54192 0 
50.991 20.1889 0 
60.6239 27.9055 0 
65.7455 30 0 
63.0719 29.0994 0 
57.4591 26.1133 0 
45.8292 11.8901 0 
45.2687 10.4988 0 
46.3898 13.2814 0 
43.4211 0 0 
52.2258 21.9194 0 
44.7081 9.10747 0 
43.4211 2.04975 0 
46.9504 14.6727 0 
62.1465 28.9321 0 
58.4385 27.0222 0 
64.7172 30 0 
44.1475 7.71616 0 
47.511 16.0641 0 
59.6155 27.9468 0 
43.251 3.29583 0 
53.4606 23.65 0 
63.6889 30 0 
42.9276 1.02487 0 
61.1182 28.9321 0 
48.0715 17.4554 0 
43.365 6.02395 0 
54.6178 24.9885 0 
49.069 19.4127 0 
62.6606 30 0 
58.6747 28.0459 0 
50.8222 21.6733 0 
42.4342 0 0 
60.1098 28.9734 0 
55.775 26.3271 0 
42.4342 2.04975 0 
52.057 23.4039 0 
56.7544 27.236 0 
44.344 11.6799 0 
49.6295 20.804 0 
44.9046 13.0712 0 
61.6323 30 0 
43.7834 10.2886 0 
45.4652 14.4625 0 
43.2228 8.89729 0 
57.7339 28.1449 0 
46.0258 15.8539 0 
59.1213 28.9734 0 
41.9408 1.02487 0 
42.6622 7.50598 0 
46.5863 17.2452 0 
60.604 30 0 
55.9067 27.3302 0 
52.3471 24.5393 0 
53.1846 25.3346 0 
47.1469 18.6365 0 
41.7707 4.59487 0 
56.8861 28.2391 0 
41.4474 0 0 
58.1804 29.0725 0 
50.6533 23.1578 0 
41.3487 1.8996 0 
59.6155 30 0 
54.3417 26.6731 0 
55.1468 27.4186 0 
47.7075 20.0278 0 
49.4607 22.2884 0 
57.2873 29.0725 0 
56.0384 28.3333 0 
43.4194 12.861 0 
42.8588 11.4697 0 
43.98 14.2524 0 
40.8553 0.874731 0 
58.627 30 0 
50.9434 24.2932 0 
40.9539 3.34878 0 
42.2982 10.0784 0 
44.5406 15.6437 0 
48.2681 21.4191 0 
41.7376 8.68711 0 
45.1011 17.035 0 
41.068 6.0769 0 
40.4605 0 0 
56.4396 29.1666 0 
55.2785 28.4216 0 
41.177 7.2958 0 
57.7339 30 0 
45.6617 18.4263 0 
40.2632 1.74946 0 
51.2336 25.4286 0 
52.071 26.2239 0 
52.9085 27.0192 0 
46.2223 19.8176 0 
49.2716 23.6764 0 
53.7135 27.7646 0 
55.6371 29.1666 0 
56.8408 30 0 
54.5186 28.51 0 
39.8684 0.874731 0 
[...]
POINT_DATA 2394
SCALARS cohesion float 1
LOOKUP_TABLE default
31.8257
31.8021
26.5443
26.2423
32.9882
21.134
25.9515
20.8237
32.8467
20.0496
21.0609
26.0132
19.661
34.4969
18.8694
19.179
20.9349
24.2334
18.9101
34.0338
20.391
19.985
20.1346
24.1187
21.5848
22.4289
33.8824
24.5909
20.9728
24.5146
22.9713
19.9972
25.9683
24.5087
32.1569
22.2342
20.7463
22.7271
26.6857
20.8102
25.5209
19.6022
28.6258
32.2062
17.8108
21.0898
20.5503
23.056
17.7725
24.9686
18.0497
31.3897
19.4337
20.8916
20.2726
18.2766
19.2023
22.8579
18.8994
19.5864
24.7114
22.1325
25.2216
31.6655
25.1985
20.4376
23.2842
25.9917
24.7875
20.9915
26.0561
19.6528
17.4094
21.1233
31.3791
23.3797
26.6194
24.1692
26.3771
20.6872
24.8293
25.2038
21.7175
28.039
18.0365
32.2667
32.9876
21.688
19.2396
36.6557
25.4548
26.4498
25.9395
23.0623
22.9758
44.789
32.4616
18.6985
33.7641
41.4657
22.5335
51.734
26.0521
30.5738
20.1975
57.1662
26.9179
23.0433
55.1588
25.5219
33.3966
27.181
20.1647
23.6114
57.5884
50.1669
49.8055
27.8128
26.5434
44.2616
21.892
34.5739
22.9183
27.1153
55.688
33.4987
30.5188
42.8429
21.8054
24.2505
37.932
56.0043
38.2984
28.4655
32.924
25.213
33.5728
55.1248
33.8442
22.3766
35.3304
23.5386
30.6537
25.2317
51.0365
32.4239
30.1433
31.0589
24.9172
23.7695
29.4093
28.8804
32.771
28.7425
29.0468
33.1481
28.5341
51.6689
35.1837
28.4166
34.4882
25.2336
24.6714
31.3236
28.5
29.1321
22.6232
28.4422
22.2061
27.8039
27.7919
35.9065
48.2066
33.2268
32.715
26.936
24.9622
27.5923
27.1189
26.6168
30.7934
26.5367
27.4045
27.8104
37.0048
28.2442
23.7706
22.4372
27.2615
28.706
45.1233
28.0875
32.2223
29.2338
24.5413
31.9736
21.6497
29.1797
32.9232
25.943
29.7627
27.3498
38.0275
27.0435
40.0001
26.6181
27.5557
27.9507
28.9035
32.6143
23.3685
21.8683
27.1329
24.5788
31.7651
25.8083
26.9365
38.2881
30.9436
25.2309
34.0762
21.277
24.6558
27.9356
25.2793
24.6619
27.525
27.1087
25.4669
31.8752
24.8804
38.8678
27.8869
25.3707
27.1037
21.2439
23.3082
28.0654
25.5838
24.2273
30.5535
26.9868
32.8903
28.4673
26.4786
24.5833
25.7967
22.2494
31.2721
26.4033
38.6079
23.8759
24.8758
25.3415
28.948
25.6613
25.674
25.6446
21.301
25.7629
26.6462
26.8492
27.1577
23.5163
26.1011
30.3116
26.7565
27.1757
29.9193
25.9697
31.7199
27.4269
22.9943
29.2554
28.5895
24.0889
28.0307
25.2298
38.453
28.7104
25.9482
22.53
23.3761
27.1599
27.8952
29.3656
30.9576
28.7249
23.355
30.1976
24.548
23.1692
30.427
32.8797
23.0824
31.4326
22.1684
31.8045
26.9899
23.6452
39.642
32.9209
35.7404
27.3937
38.1326
32.9535
23.8783
30.5005
27.3829
25.5137
39.2189
23.9623
32.8309
30.1585
41.0313
21.4363
32.4529
23.5352
31.3003
27.8527
31.3249
27.6749
34.575
31.7723
41.6083
29.3601
25.7042
34.2331
34.8408
43.0113
25.2054
30.997
44.7427
31.0751
27.6911
21.4514
32.2699
33.8966
57.9856
34.3614
26.183
34.454
28.4518
43.2465
31.6616
35.526
24.2329
32.5196
23.7566
42.8226
72.8385
31.0315
35.9595
31.6196
37.8757
26.5233
70.9453
32.022
70.2298
63.2111
22.972
29.4955
69.8505
36.2223
31.1289
32.2142
21.7523
66.8911
48.5181
40.5549
60.6755
32.2998
33.4496
32.2446
25.1093
44.0656
27.557
53.1349
57.815
30.095
29.5888
42.3828
47.8196
46.7338
44.5343
27.7311
49.2454
38.491
46.462
25.511
31.8183
30.4287
33.3205
48.4102
43.4878
20.213
49.3362
32.5422
58.0918
28.2244
50.1522
42.9869
27.1281
35.5863
52.3156
32.8611
43.8519
39.6715
37.6137
38.1202
26.779
52.3217
45.4866
40.5933
30.9908
40.0875
31.9395
29.0161
58.1951
41.9275
43.7389
52.0747
43.1782
59.2949
19.7696
53.9257
32.9589
29.6166
29.177
44.3386
33.2683
29.6771
51.3759
45.2177
32.9658
32.4746
33.1026
33.2925
31.2806
34.2255
37.4247
43.4876
46.653
34.0366
34.6454
47.0383
43.6595
45.1104
50.2733
28.0137
35.8315
33.0424
52.6579
49.0801
32.8934
63.6546
35.5233
36.5845
29.1778
54.483
20.2311
54.3268
33.789
38.29
55.0937
31.823
26.0546
51.0317
31.4106
39.78
60.9178
30.8921
43.1185
59.2006
41.1934
53.4397
47.1841
42.9751
39.8653
46.779
32.7097
33.6804
34.453
28.9028
35.6189
56.7738
65.6281
42.2073
30.6335
20.8581
62.3882
32.6412
56.4698
43.8088
31.3945
59.5289
24.0874
33.2828
48.8748
35.8497
45.4962
63.5468
33.1993
32.34
61.6692
50.9795
27.8824
47.3731
66.3318
42.4754
35.415
45.8228
47.6626
43.2341
37.1504
35.1513
62.911
21.0855
63.6916
31.1797
32.6182
25.1123
49.3822
63.4013
50.5776
43.3136
26.5598
31.0847
66.6213
32.2375
64.952
42.5161
28.4518
51.4039
59.4526
64.5593
37.4665
34.3605
65.4362
67.952
45.1039
43.8781
36.573
31.1373
51.9264
54.1583
31.1719
46.3372
21.9717
31.9386
35.6206
23.7055
34.9804
32.0501
64.3501
67.282
34.7553
52.5768
25.123
28.3652
41.1633
51.351
63.0022
33.9299
49.1768
63.3804
64.2414
53.2499
67.2135
31.0253
29.321
37.7738
31.27
45.6168
36.4199
45.9579
65.4593
22.2846
53.7681
62.8875
32.1787
48.9069
66.2854
48.8897
22.9682
27.8743
35.4217
23.7865
33.2384
56.9109
64.1363
59.4598
47.531
36.1614
61.8823
53.6052
36.4064
30.6759
63.7974
31.2857
29.2904
35.5038
53.3405
57.3529
30.9148
60.4964
63.2154
32.0934
27.1426
46.9743
37.5536
47.1948
23.4983
53.1532
59.8526
49.0452
22.0287
61.7242
64.4916
59.8965
57.4019
48.5684
24.2647
54.4673
30.7545
52.2652
34.3513
32.5966
58.6606
35.4615
28.2318
40.5003
59.5351
62.1919
48.5643
53.0388
30.647
52.0453
32.8187
48.9111
58.2815
26.1764
31.6195
61.8392
56.6446
58.4198
62.0441
57.9088
51.3235
56.7014
29.4392
40.0214
25.9628
57.2345
49.7034
21.1045
50.9023
50.7456
25.9098
56.1004
58.3277
46.8866
26.3844
34.1448
56.263
51.8237
58.2952
32.938
50.1834
33.27
41.4935
58.0623
26.3548
49.3618
55.1883
31.1717
53.5539
62.068
29.731
41.0719
56.1081
49.741
54.5809
56.7664
29.4209
57.53
49.4478
61.0677
56.2283
58.7608
55.0427
57.3433
53.1272
56.5632
29.6162
44.3372
21.4845
49.1599
51.5938
54.7036
27.9112
33.3565
25.321
52.8806
50.7919
26.0179
50.864
41.7254
48.9103
35.7963
51.8214
54.2328
60.9487
54.2356
57.4767
52.4696
31.5989
57.6404
54.5517
48.5891
53.4359
31.089
52.2761
57.201
53.6544
29.5643
39.2453
38.892
33.6317
48.4214
56.4015
59.1862
53.3551
52.7136
53.4769
51.071
58.8136
48.1045
58.6347
52.6283
51.411
32.8598
50.8369
52.4961
25.7616
47.8898
52.6825
57.0408
52.5477
33.623
22.1661
51.0151
54.2909
54.1629
48.9396
30.6486
56.871
52.0616
56.1529
47.7382
52.3691
50.6022
49.171
26.9202
50.8167
34.471
57.7585
51.6539
47.5333
52.0279
33.6997
51.8056
31.232
50.2776
52.5912
57.4143
51.3642
47.3852
58.3121
29.6762
50.1124
30.1095
53.1019
37.8818
50.9839
47.1824
57.2202
51.3316
49.6142
51.1593
50.703
51.8915
47.0568
53.6889
58.2855
54.8404
51.0204
49.4574
33.3089
37.0915
25.1545
46.8974
50.4538
50.6613
54.9784
50.7787
49.0209
50.7946
50.1409
46.787
38.1943
48.8708
56.6185
50.2611
46.6769
49.8959
48.1474
50.2951
54.3434
50.0995
48.4827
51.075
50.2615
49.6301
46.5496
38.2525
48.3279
49.9032
31.3754
55.9439
30.3625
49.9781
46.4882
52.1082
49.3606
51.8124
46.7306
49.6877
47.9797
45.1199
49.94
49.5276
29.8973
49.0891
46.3596
47.8624
56.9937
50.7325
53.5179
46.3171
48.8692
28.8511
49.4277
49.3638
47.5621
49.5746
52.1138
46.188
23.6783
48.6012
49.2596
32.705
47.4627
49.5144
35.9514
32.1762
54.9048
46.1472
48.3973
40.5266
49.1228
47.2835
49.1829
49.1062
46.0344
48.2637
33.2058
49.2765
47.2473
24.9656
46.0294
48.1332
49.0988
52.8134
47.1073
45.1306
48.4279
46.0167
35.3108
48.6392
45.1284
48.9238
47.0518
48.4968
46.033
44.3274
47.4122
49.2273
48.4915
48.7874
45.9526
47.3386
44.0376
43.4236
48.3192
45.858
55.0017
52.5417
43.9582
47.1869
44.4847
47.7505
44.3127
48.3056
45.7863
31.2298
48.383
44.4249
43.0727
47.1027
48.3394
43.1379
48.2249
45.6889
43.2914
53.8106
47.3106
44.2181
48.1119
28.959
45.6201
43.1596
34.6375
48.0148
39.4448
47.2879
44.0805
43.5634
47.1701
47.8834
43.2025
48.9625
49.2624
53.3855
42.9893
45.4994
42.9209
42.8236
47.8622
43.1878
46.8794
43.2846
45.3401
44.7066
47.7117
42.817
34.6721
54.534
46.7265
46.6831
43.1655
43.6317
47.3855
45.1356
51.3087
47.5105
24.1107
43.4304
42.8324
23.965
46.8689
44.9363
42.6716
47.1854
47.4574
41.9589
43.2861
46.1497
35.6822
47.3284
50.5846
35.7503
39.3059
46.6103
42.5149
45.8408
44.6748
30.2821
46.7469
42.9937
47.1055
44.0651
42.4923
46.0566
45.1376
44.4421
51.3858
33.4441
43.5101
28.4609
41.1542
42.8153
46.9096
42.4626
45.8593
48.4248
45.7338
44.1475
49.9906
43.7128
42.5124
46.6809
45.9526
42.5244
45.9498
45.7675
49.6319
43.7715
44.0872
46.1711
57.7278
42.352
32.4231
46.4926
42.5689
35.1734
35.2645
45.5289
54.6525
43.3721
44.1427
45.2226
41.1715
52.5159
42.125
42.8954
49.6666
46.2655
25.0619
48.6045
44.9404
48.8423
42.9166
46.7227
62.9248
41.9931
48.7538
43.1495
45.9465
59.5941
44.4229
47.5445
48.7131
27.0908
42.425
41.9699
28.0012
40.145
36.5334
38.3209
54.6626
43.8276
43.0289
40.489
44.265
45.6304
41.7314
44.3109
48.7287
41.853
31.6969
42.0477
64.8043
44.1488
27.7303
45.3571
44.0162
64.9603
51.4967
45.429
43.6093
41.3982
34.3474
42.3361
45.2522
60.6517
23.4886
48.4081
47.2855
54.4854
45.2255
43.0131
43.8332
40.9898
62.7535
42.6658
39.7847
31.2908
46.6361
41.7027
40.9942
66.5305
56.3439
41.8655
30.0366
42.203
44.8151
40.8696
43.5192
65.8413
48.3862
54.2663
34.4241
59.1345
41.5192
40.843
44.3581
39.1198
44.3761
43.2985
50.423
34.8054
38.6314
50.8509
43.4815
54.3051
40.314
46.3581
48.4979
32.5759
40.7405
40.8152
23.4066
28.8381
62.2018
41.3623
40.769
46.0752
22.7064
53.4925
43.4435
67.5196
42.5368
43.5482
64.7054
42.042
47.8861
56.6854
29.3814
40.416
42.4994
46.2485
33.126
27.7567
40.4328
66.2195
43.6529
56.1053
40.0653
67.1193
50.8384
60.2523
45.0117
43.6041
40.7734
51.0842
40.3265
41.4218
51.6456
66.3557
31.8197
22.5463
48.8793
41.0223
63.3621
53.9894
45.6706
39.1055
38.4283
45.3559
39.536
40.8527
41.1708
22.9257
39.8164
43.5998
62.9095
47.0639
28.6105
40.1599
43.9833
31.3284
64.9233
58.3219
65.8616
29.4849
28.6659
48.5556
42.4384
41.9187
39.516
44.9925
43.8767
35.6348
65.7795
42.3368
63.775
41.451
61.2026
30.7501
57.3058
52.6249
21.0227
44.4104
44.623
50.4381
44.3924
46.7213
39.6969
47.7393
51.9656
64.5988
60.3768
63.6279
27.1734
42.4998
57.4099
27.6614
37.2964
39.6157
47.1521
44.8547
48.2465
40.8671
24.5768
46.3575
63.0732
44.1444
39.0058
44.2465
63.8152
36.4552
61.3063
30.1068
21.6529
29.2307
53.2039
48.5947
38.8478
45.3396
33.2118
57.3735
43.1086
45.348
27.7607
62.5872
41.759
40.6218
36.7716
51.2258
62.5857
48.059
51.545
40.8932
26.6493
44.1978
58.4513
53.2286
33.4155
51.1816
43.5849
50.408
58.5209
46.1795
23.0258
41.925
63.4814
29.4314
21.2305
46.572
40.1787
61.3215
39.1115
29.7701
43.1834
44.4582
26.4774
48.3548
57.0162
39.4163
31.4441
34.5684
35.462
31.9509
59.1417
25.9442
44.1744
36.1614
50.9125
42.1525
38.4051
44.1085
41.3578
62.2292
50.5689
37.9605
48.0872
43.3116
41.1772
42.6064
43.0884
61.1802
39.0979
28.5645
44.0036
52.3497
21.3945
54.1396
23.5383
37.7487
37.5882
50.7513
59.0255
28.1312
26.5116
41.2057
37.9296
62.9432
25.5262
42.6048
28.6997
45.7414
60.9493
51.3193
37.9505
41.5754
48.084
31.9057
52.1071
39.6329
29.8195
41.2954
39.2749
34.9058
48.3648
38.1156
45.6134
27.8076
41.7729
20.594
47.8523
49.4507
57.8956
37.463
40.2329
39.0552
63.8894
40.4131
26.9574
35.5461
44.9047
37.9813
32.3606
43.6282
22.2614
25.3862
34.0915
41.7691
35.1845
49.5188
44.9711
30.4351
38.1498
37.9824
50.2168
41.0226
26.8934
38.5214
40.3088
39.2753
65.1121
45.0871
33.1918
27.1738
21.5262
32.9335
30.6456
25.606
53.3962
38.3762
44.118
41.7068
32.9495
44.2962
33.8931
27.7576
56.2414
40.3539
51.2017
36.8654
44.7206
40.1247
37.9228
31.6324
25.2708
36.2399
32.1123
40.3098
20.1728
35.6094
40.6335
61.3088
39.1226
26.5365
38.2442
25.1155
34.2859
45.1416
40.8167
40.0768
44.7761
31.3846
25.9283
26.8255
43.0161
21.4819
55.0567
32.8242
37.3633
33.9899
28.0123
41.21
39.4889
31.8127
26.3406
39.4226
29.8983
32.2565
29.5016
41.1
47.5202
38.0361
42.906
41.6324
25.672
47.5853
25.667
33.555
51.3222
25.8668
40.7425
41.7675
54.0204
23.6642
42.5724
32.6629
36.7925
34.5443
35.6028
34.2329
22.5948
41.8284
31.3986
27.6457
26.0295
60.3964
22.0353
31.3747
24.4684
21.6084
26.309
38.1109
41.6659
38.9404
42.7138
32.521
24.8369
25.6356
42.3944
30.5432
40.1587
37.7259
25.3132
44.2772
36.4488
30.4465
32.4527
28.5397
25.8973
39.0947
24.7193
33.7395
32.9333
33.4128
25.7638
30.4123
24.4274
28.6973
30.627
42.3184
38.9548
45.7879
53.619
40.6592
31.2632
45.362
35.349
36.7319
32.7745
31.9784
27.0303
53.1862
43.9817
63.922
23.8812
30.9503
26.0622
26.632
22.6455
24.5522
43.3909
30.5418
31.0456
37.4962
47.4704
25.7445
32.9109
35.636
20.9126
26.6621
31.4915
32.3424
41.4105
30.2705
30.7267
22.9152
31.7949
25.5681
24.3182
28.011
32.2417
31.4151
32.2386
32.44
40.3041
30.2028
36.0602
23.2259
29.2885
29.4986
44.3097
35.6424
36.012
31.145
39.4976
25.4675
47.532
31.6683
25.207
23.034
32.4412
25.3435
28.8853
25.8865
30.8112
37.8418
30.2081
29.1553
51.1226
25.2685
60.4539
23.5721
46.495
32.4564
30.9878
58.891
38.6323
31.7346
32.4046
26.8163
37.7092
29.4742
23.3567
32.5001
25.8852
39.3353
29.9914
30.4098
23.5481
24.4542
30.6616
25.2468
31.7675
32.1633
30.1186
27.0909
23.0533
47.548
26.4272
22.0475
36.0827
30.3219
23.5428
34.5218
30.2367
31.8367
31.4367
40.8404
27.3992
41.6257
27.0748
30.0496
27.265
40.0658
22.746
35.894
25.644
24.1416
30.4964
25.7609
30.8102
22.8394
26.1315
36.0136
31.8242
35.2649
28.152
31.5768
51.6145
24.9486
30.073
27.1698
24.861
30.4422
23.3267
23.0735
45.8554
27.5882
38.4615
50.9267
22.5972
31.6829
54.334
32.5036
29.4895
23.8129
24.9961
56.4895
26.8595
24.6419
26.4082
23.1853
45.7708
30.1482
22.6097
24.1253
31.8034
44.8015
29.4834
31.4652
36.3116
28.0318
23.371
24.3861
25.4036
28.906
23.0718
45.4886
31.796
22.6305
23.9196
28.0355
24.9122
30.6034
24.7868
25.4229
30.3484
31.7847
38.1693
22.9981
23.0147
26.145
28.5457
22.7096
37.7501
31.6069
30.6543
26.3356
24.371
33.8325
31.6063
23.4751
24.5163
26.7846
23.1762
29.2852
22.7059
36.6237
31.0669
33.5871
35.3505
31.6464
52.8458
28.772
37.3371
25.037
48.1997
40.0997
34.3299
66.9961
26.8051
29.309
26.4548
26.7511
31.0648
39.4285
31.9523
31.5717
25.9999
23.2533
24.0796
23.9468
29.9052
28.5126
22.9038
29.3686
31.1074
31.6642
28.4465
30.3805
24.6504
50.0477
27.6064
24.0139
29.0408
40.6306
31.1437
31.6217
28.5052
37.7446
25.3527
30.6154
32.8612
23.3506
37.9157
23.4436
28.5246
31.1664
31.7318
27.2565
30.6287
26.1976
38.1616
27.1905
31.7288
29.5213
26.2154
23.2003
31.2207
49.4506
30.4735
45.954
23.9731
30.1246
39.9561
31.7717
27.5392
24.039
31.1163
63.0373
29.5674
43.3668
31.2082
49.6087
31.6999
29.5849
23.734
34.9353
31.2329
31.6122
27.0141
31.7753
26.1114
23.1914
32.6872
25.4251
37.5849
24.5554
29.8321
31.2505
27.3046
31.725
30.9628
31.9788
30.105
27.1096
26.966
31.3815
31.768
23.5514
29.7601
38.3722
38.2168
26.3338
25.7705
31.3836
31.7203
39.9313
23.6197
29.4376
37.5744
31.2193
36.2484
22.8903
31.7692
28.7948
33.9786
24.5502
31.22
45.5839
39.8578
28.2697
30.8288
26.576
47.7334
31.7174
59.0622
30.8583
22.1819
32.8912
24.8937
25.6995
41.9476
38.9696
31.7851
23.0179
28.5497
30.8042
29.1032
28.5475
24.115
33.7812
31.7628
29.8713
24.8544
28.7971
26.7779
30.6855
39.4406
30.9912
26.0328
22.7542
31.8084
22.6493
27.9214
36.9174
23.5829
24.9343
31.6925
30.9637
26.9669
31.7104
40.8581
29.264
30.3574
27.8582
23.8679
28.529
21.403
31.808
43.0918
43.2235
27.5349
23.0153
30.3767
44.2467
38.7724
31.9543
30.3441
60.5677
23.8416
42.5976
31.7572
25.509
28.1386
34.7934
27.7573
41.3844
30.721
21.3815
27.7242
33.8287
21.7477
22.6601
31.7837
27.0981
27.6805
23.3383
28.4116
35.0987
30.7109
23.8857
34.4182
31.6828
33.5361
33.5517
27.2255
42.0693
20.8586
30.4692
35.5423
27.9412
39.4075
31.7421
30.4596
23.7497
23.9776
30.4584
20.793
32.7619
40.8809
40.8384
31.6842
30.6887
20.2643
50.4871
32.2113
27.1783
21.1614
44.0788
49.3823
30.9603
38.3223
27.9697
31.8094
24.3441
24.4447
24.2746
30.3463
26.854
24.0714
46.5391
20.8276
29.4942
27.0633
31.5772
31.7276
32.2684
35.5735
36.5694
26.2162
30.4756
28.2986
19.6946
31.0498
24.1745
21.6578
34.7827
31.7792
26.096
24.4537
21.3567
30.3105
47.3113
30.4088
28.8838
25.2201
44.2671
36.636
42.3106
33.4994
57.7163
31.8151
31.5719
25.0189
40.9603
21.1312
24.888
53.8584
30.1863
29.5898
34.2267
25.2066
23.6576
32.0879
31.6492
25.2819
34.4093
33.4069
30.6477
28.8992
19.9631
29.6526
29.819
21.3974
38.3965
32.1158
24.1542
27.2522
43.9503
25.586
36.3521
25.6827
29.6257
22.0662
32.3026
43.1641
41.6078
50.9602
32.8164
55.7935
24.7585
24.8626
24.2781
43.4701
30.1378
38.0216
26.7402
29.2696
29.7054
23.1562
26.3781
27.5254
42.4795
32.3474
22.4771
19.7923
32.335
25.1826
35.8259
39.8789
27.8215
30.7233
35.0029
32.3568
27.9022
25.2783
23.188
33.7718
28.058
34.1035
31.6308
27.4736
47.9651
30.7808
32.0959
25.5205
32.4194
25.3165
43.1459
22.9469
39.033
49.2702
46.3881
27.1853
23.6152
42.0707
55.3641
22.3923
30.4578
22.4106
32.1875
27.111
25.3106
27.7869
33.8791
26.5749
36.5279
30.7797
35.3446
30.3508
32.8621
24.6712
32.0615
26.2615
21.8129
32.2915
35.3945
26.338
32.8846
44.2749
35.2002
29.6436
34.3373
23.1469
32.217
26.7532
25.4989
23.8813
35.1033
51.7873
25.999
21.1855
37.5925
43.3472
44.2201
29.4007
32.1124
42.8213
22.7169
31.8683
26.607
26.7092
39.7796
30.6261
25.5668
25.29
35.2132
29.3087
30.2551
37.3203
31.359
31.949
36.7399
35.4376
39.7469
27.0108
28.8828
25.3697
25.269
37.7397
26.8404
31.6116
29.3828
45.398
35.9026
37.4326
31.5315
40.9504
28.9697
27.9998
28.1802
23.8991
44.5211
35.9312
23.5392
30.6107
28.883
30.1986
30.431
36.6194
33.2816
30.6813
30.9087
33.2293
27.8314
24.1866
29.1778
34.5724
39.7076
29.5264
40.2708
22.9026
23.906
30.7066
30.3043
39.9967
41.8427
43.4937
27.0822
41.4806
38.5525
35.1671
30.0161
34.1068
25.2171
26.3725
29.8513
29.92
35.5331
21.7347
33.005
35.978
32.6322
30.6914
25.3273
34.7721
38.1672
28.4825
31.1331
25.7593
38.4691
40.34
26.9726
41.2579
29.5509
29.3359
33.4465
45.0763
38.1612
39.0911
30.7256
32.3346
21.3598
41.1965
32.8064
24.7644
29.5926
24.8284
26.4616
29.0811
22.014
38.0409
36.0268
31.2469
30.6009
32.109
26.8572
30.098
34.6125
39.8093
20.8278
20.6072
31.5239
32.4334
24.5237
38.0749
30.977
28.4891
30.4055
30.9573
32.5729
38.155
30.7798
34.8422
25.9172
36.3051
39.4023
25.908
29.4243
43.7199
34.8637
25.0279
34.3877
27.348
20.3254
26.5684
35.3443
39.8326
24.1363
30.0566
27.9745
23.721
32.2762
29.5337
26.5875
36.5903
36.7617
38.5036
31.8853
23.9365
19.9917
39.2631
24.2077
42.3145
26.9971
35.8777
27.4047
29.9958
36.9488
25.2447
27.2
33.678
31.5221
31.3779
29.8462
19.5944
36.733
23.9059
44.076
29.6857
36.8769
26.3981
26.9728
21.2449
33.6485
30.4377
39.78
24.7383
19.6098
23.3621
22.9683
33.4907
26.9302
41.4003
28.0345
23.792
25.7879
36.761
24.0778
29.0068
22.7539
20.1096
25.2295
35.8299
36.1723
45.4681
27.1199
40.4579
34.9905
39.1843
29.274
24.8075
40.6175
23.8513
24.9926
27.0255
27.1858
23.6295
20.1015
43.046
33.1817
26.3997
24.2474
38.4433
27.0982
23.9866
20.4812
27.0972
23.9889
44.6288
41.563
48.2721
27.5385
26.0916
35.9979
20.7493
29.0795
23.8443
27.5025
36.2921
40.2543
44.7356
27.1861
29.0995
40.4731
47.3629
28.4964
21.2594
24.229
28.0616
40.533
42.3372
37.1851
27.4987
20.8508
45.4972
24.5886
28.5558
37.4114
49.6551
42.5531
29.4558
30.8606
25.471
28.932
31.9701
22.0455
28.9422
38.3667
29.1512
27.5473
39.4196
27.7222
29.4261
26.9126
35.1558
23.2194
38.956
29.1887
25.6785
38.3138
29.937
23.64
27.5665
31.6768
40.3229
24.0571
27.7505
30.5441
31.1697
34.5847
26.5363
28.0883
31.0617
25.0808
30.7298
31.8843
31.3968
27.6592
25.529
31.999
28.033
31.8439
SCALARS friction float 1
LOOKUP_TABLE default
8.5275
8.64301
11.256
11.4849
8.22504
12.7923
11.7894
12.8284
8.43222
13.5242
12.0298
12.0795
14.2863
8.08667
20.5317
17.057
11.667
12.9239
22.847
8.73652
20.5044
18.6435
22.0981
13.4921
11.2399
19.7975
8.68833
19.7749
12.3424
20.4724
19.2342
20.3234
13.5888
21.0322
9.53453
20.2937
14.3654
20.7093
20.8927
17.3966
14.3694
19.1625
19.0538
9.58255
16.3935
13.9555
14.7912
18.6498
16.7603
15.5255
16.0901
10.2235
15.642
15.6775
14.5895
16.4804
20.3218
20.6856
17.3711
15.7664
16.5642
14.4576
22.2226
10.2999
12.1391
15.7811
14.4328
11.5532
16.986
17.3069
10.2726
20.9244
17.7055
15.441
11.0585
22.6482
10.0898
9.55442
10.742
17.0043
9.86215
17.367
15.4967
10.2319
20.2717
10.6413
10.068
16.0633
22.1273
9.33411
14.634
9.52628
17.536
23.4412
16.5408
8.59236
10.9626
21.0799
9.18812
8.50252
15.6779
7.64532
14.985
9.46727
20.8674
6.78044
17.0566
22.0537
6.5265
13.9694
10.6706
9.12579
21.5767
16.1081
6.19797
6.5948
6.52754
16.6339
15.8001
6.54289
20.3571
10.3096
19.4661
12.9962
5.45869
10.9843
9.4459
5.77582