# vtk DataFile Version 3.0
File generated from DClib
ASCII

DATASET UNSTRUCTURED_GRID
POINTS 2394 float
75 0 0 
74.0132 0 0 
75 1 0 
74.0132 1 0 
73.0263 0 0 
75 2 0 
72.9355 1.08748 0 
73.9223 2.08748 0 
72.0395 0 0 
75 3 0 
72.8446 2.17496 0 
71.9486 1.08748 0 
73.9223 3.08748 0 
71.0526 0 0 
75 4 0 
72.8838 3.58748 0 
71.5238 2.50694 0 
70.6278 1.41947 0 
73.9615 4.5 0 
70.0658 0 0 
75 5 0 
71.563 3.91947 0 
72.9229 5 0 
69.641 1.41947 0 
70.203 2.83893 0 
73.9615 5.5 0 
69.0789 0 0 
75 6 0 
69.1476 2.44434 0 
72.9229 6 0 
71.6239 5.5 0 
70.2639 4.41947 0 
68.5855 1.02487 0 
73.9615 6.5 0 
68.0921 0 0 
75 7 0 
68.0921 2.04975 0 
72.9229 7 0 
71.6239 6.5 0 
68.6542 3.74338 0 
67.5987 1.02487 0 
73.9615 7.5 0 
70.3248 6 0 
67.1053 0 0 
75 8 0 
67.5987 3.34878 0 
67.1053 2.04975 0 
68.7151 5.32391 0 
73.0785 8.1 0 
66.6118 1.02487 0 
74.1171 8.6 0 
66.1184 0 0 
75 9 0 
66.6118 3.34878 0 
66.1184 2.04975 0 
71.6239 8.5 0 
67.1053 4.64782 0 
69.1755 7.15213 0 
70.3248 8 0 
73.2341 9.2 0 
65.625 1.02487 0 
74.1171 9.6 0 
67.5657 6.47604 0 
65.1316 0 0 
75 10 0 
65.1316 2.04975 0 
71.7795 9.6 0 
73.0785 10.1 0 
64.6382 1.02487 0 
65.1137 3.65591 0 
73.9615 10.5 0 
65.6071 4.95495 0 
68.0262 8.30425 0 
69.1755 9.15213 0 
64.1447 0 0 
66.0569 6.38442 0 
75 11 0 
71.6239 10.5 0 
70.3248 10 0 
64.1447 2.04975 0 
72.9229 11 0 
63.6513 1.02487 0 
64.1268 3.65591 0 
73.9615 11.5 0 
66.5173 8.21264 0 
63.1579 0 0 
75 12 0 
63.1579 2.04975 0 
64.1089 5.26208 0 
73.0785 12.1 0 
67.2259 9.58662 0 
68.3752 10.4345 0 
62.6645 1.02487 0 
64.5587 6.69155 0 
63.14 3.65591 0 
74.1171 12.6 0 
62.1711 0 0 
65.0085 8.12102 0 
70.3248 12 0 
71.6239 12.5 0 
62.1711 2.04975 0 
75 13 0 
65.717 9.495 0 
68.9358 11.8258 0 
62.6466 4.95495 0 
73.2341 13.2 0 
61.6776 1.02487 0 
63.0969 6.3615 0 
74.1171 13.6 0 
61.6776 3.34878 0 
61.1842 0 0 
66.4255 10.869 0 
63.5467 7.79097 0 
61.1842 2.04975 0 
71.7795 13.6 0 
75 14 0 
73.0785 14.1 0 
60.6908 1.02487 0 
63.9359 9.23812 0 
73.9615 14.5 0 
61.1842 4.64782 0 
66.9861 12.2603 0 
61.6346 6.05437 0 
60.6908 3.34878 0 
70.3248 14 0 
60.1974 0 0 
64.6444 10.6121 0 
71.6239 14.5 0 
62.085 7.46091 0 
60.1974 2.04975 0 
75 15 0 
68.9358 13.8258 0 
72.9229 15 0 
59.7039 1.02487 0 
65.5009 12.0501 0 
62.4741 8.90807 0 
73.9615 15.5 0 
67.5467 13.6516 0 
59.2105 0 0 
60.2109 5.66149 0 
62.8633 10.3552 0 
60.6613 7.06804 0 
75 16 0 
59.1118 1.8996 0 
66.0615 13.4414 0 
69.4963 15.2171 0 
73.0785 16.1 0 
63.7198 11.7932 0 
59.2712 4.40082 0 
61.0276 8.51671 0 
58.6184 0.874731 0 
58.7778 3.10178 0 
68.1073 15.0429 0 
74.1171 16.6 0 
70.3248 16 0 
58.2237 0 0 
71.6239 16.5 0 
64.5763 13.2312 0 
61.4167 9.96386 0 
75 17 0 
66.6221 14.8327 0 
58.0263 1.74946 0 
59.2376 6.67516 0 
62.2346 11.583 0 
73.2341 17.2 0 
57.6316 0.874731 0 
59.6039 8.12383 0 
57.6923 2.95164 0 
58.2979 5.41449 0 
68.6678 16.4342 0 
74.1171 17.6 0 
65.1369 14.6226 0 
63.0911 13.0211 0 
57.2368 0 0 
59.9702 9.5725 0 
71.7795 17.6 0 
57.1382 1.8996 0 
75 18 0 
67.1826 16.2241 0 
69.4963 17.2171 0 
60.8215 11.2716 0 
57.3582 4.15382 0 
73.0785 18.1 0 
56.7434 1.02487 0 
63.6517 14.4124 0 
56.8041 3.10178 0 
57.8154 6.75019 0 
58.376 8.14151 0 
65.6974 16.0139 0 
73.9615 18.5 0 
61.6059 12.8109 0 
70.3248 18 0 
56.25 0 0 
71.6239 18.5 0 
56.25 2.04975 0 
58.7423 9.59018 0 
56.8757 5.48952 0 
75 19 0 
59.3749 10.8802 0 
67.7432 17.6154 0 
72.9229 19 0 
64.2122 15.8037 0 
62.1665 14.2022 0 
55.7566 1.02487 0 
60.1928 12.4994 0 
66.258 17.4052 0 
68.5717 18.3983 0 
73.9615 19.5 0 
55.7563 3.4912 0 
55.2632 0 0 
56.3932 6.82522 0 
56.9538 8.21654 0 
62.727 15.5935 0 
55.2022 2.43916 0 
57.5143 9.60785 0 
75 20 0 
64.7728 17.195 0 
60.6813 13.992 0 
58.147 10.8979 0 
73.0785 20.1 0 
58.7796 12.188 0 
55.3905 5.27933 0 
54.7088 1.41428 0 
66.8186 18.7965 0 
70.3248 20 0 
74.1171 20.6 0 
63.2876 16.9848 0 
61.2418 15.3833 0 
69.1323 19.7896 0 
54.2763 0 0 
71.6239 20.5 0 
59.2681 13.6806 0 
65.3334 18.5863 0 
75 21 0 
54.1544 2.82857 0 
55.4686 8.00635 0 
54.908 6.61503 0 
56.0291 9.39767 0 
73.2341 21.2 0 
53.7219 1.41428 0 
56.5897 10.789 0 
61.8024 16.7746 0 
57.2224 12.079 0 
63.8482 18.3761 0 
59.7566 15.1731 0 
67.3791 20.1878 0 
74.1171 21.6 0 
53.7886 4.61671 0 
53.2895 0 0 
71.7795 21.6 0 
57.7829 13.4704 0 
53.2285 2.43916 0 
65.8939 19.9776 0 
75 22 0 
62.363 18.1659 0 
60.3172 16.5644 0 
73.0785 22.1 0 
52.7961 1.02487 0 
53.9834 7.79616 0 
54.5439 9.18748 0 
64.4087 19.7674 0 
58.2714 14.9629 0 
70.3248 22 0 
53.4228 6.40485 0 
73.9615 22.5 0 
55.1045 10.5788 0 
69.1323 21.7896 0 
52.7351 3.7382 0 
52.3026 0 0 
67.9397 21.5791 0 
55.6651 11.9701 0 
71.6239 22.5 0 
52.3026 2.04975 0 
60.8778 17.9557 0 
62.9235 19.5573 0 
58.832 16.3542 0 
75 23 0 
66.4545 21.3689 0 
56.2257 13.3614 0 
72.9229 23 0 
51.8092 1.02487 0 
52.3693 5.52633 0 
64.9693 21.1588 0 
51.8092 3.34878 0 
56.7862 14.7527 0 
73.9615 23.5 0 
61.4383 19.3471 0 
59.3926 17.7456 0 
51.4145 1.8996 0 
51.3158 0 0 
53.0587 8.97729 0 
52.4982 7.58597 0 
53.6193 10.3686 0 
71.2128 23.5672 0 
63.4841 20.9486 0 
54.1799 11.7599 0 
57.3468 16.1441 0 
75 24 0 
50.9211 0.874731 0 
51.3158 4.64782 0 
54.7405 13.1512 0 
72.5118 24.0672 0 
69.5776 23.6331 0 
50.9211 3.19864 0 
68.385 23.4226 0 
59.9531 19.1369 0 
61.9989 20.7384 0 
55.301 14.5426 0 
57.9074 17.5354 0 
51.4447 6.70746 0 
67.1321 23.2061 0 
50.5263 1.74946 0 
73.5504 24.5672 0 
50.3289 0 0 
65.6469 22.9959 0 
55.8616 15.9339 0 
75 25 0 
51.5735 8.7671 0 
52.1341 10.1584 0 
49.9342 0.874731 0 
52.6947 11.5497 0 
60.5137 20.5282 0 
58.4679 18.9267 0 
72.1008 25.1344 0 
53.2553 12.941 0 
49.8355 3.34878 0 
56.4222 17.3252 0 
53.8158 14.3324 0 
70.4655 25.2003 0 
73.5504 25.5672 0 
49.4408 1.8996 0 
49.3421 0 0 
63.815 23.2124 0 
59.0285 20.318 0 
49.9595 6.49727 0 
54.3764 15.7237 0 
61.0743 21.9195 0 
56.9827 18.7165 0 
75 26 0 
68.8303 25.2661 0 
49.3989 5.10595 0 
67.5774 25.0496 0 
48.8487 1.02487 0 
62.3298 23.0022 0 
50.6489 9.94823 0 
66.3246 24.8331 0 
50.0883 8.55691 0 
51.2095 11.3395 0 
54.937 17.115 0 
51.7701 12.7309 0 
72.4347 26.4726 0 
59.5891 21.7093 0 
57.5433 20.1078 0 
48.3553 0 0 
52.3306 14.1222 0 
48.3553 2.04975 0 
70.9797 26.4993 0 
55.4975 18.5063 0 
73.8843 26.9053 0 
75 27 0 
52.8912 15.5135 0 
47.8618 1.02487 0 
69.3444 26.5651 0 
64.4926 25.0496 0 
58.1039 21.4991 0 
47.9186 3.80692 0 
53.4518 16.9048 0 
68.3162 26.5651 0 
60.1497 23.1006 0 
56.0581 19.8976 0 
67.0633 26.3486 0 
49.1637 9.73804 0 
49.7243 11.1294 0 
47.3684 0 0 
48.6031 8.34672 0 
50.2849 12.5207 0 
47.3684 2.04975 0 
61.4051 24.1834 0 
66.035 26.3486 0 
48.0426 6.9554 0 
54.0123 18.2961 0 
50.8454 13.912 0 
72.7686 27.8107 0 
73.8843 27.9053 0 
75 28 0 
47.482 5.56409 0 
71.3136 27.8374 0 
62.6606 25.2661 0 
58.6645 22.8904 0 
51.406 15.3033 0 
56.6187 21.2889 0 
46.875 1.02487 0 
46.9318 3.80692 0 
69.8586 27.8642 0 
54.5729 19.6874 0 
51.9666 16.6946 0 
68.8303 27.8642 0 
46.3816 0 0 
64.203 26.5651 0 
46.3816 2.04975 0 
67.802 27.8642 0 
57.1793 22.6803 0 
52.5271 18.0859 0 
48.2391 10.9192 0 
59.6464 24.5 0 
47.6785 9.52785 0 
48.7997 12.3105 0 
72.856 28.9053 0 
75 29 0 
73.9717 29 0 
47.1179 8.13653 0 
66.7737 27.8642 0 
49.3602 13.7018 0 
71.8278 28.9053 0 
45.8882 1.02487 0 
60.9019 25.5828 0 
46.5574 6.74521 0 
49.9208 15.0931 0 
63.0719 26.7325 0 
70.3727 28.9321 0 
53.0877 19.4772 0 
65.7455 27.8642 0 
69.3444 28.9321 0 
62.1465 26.5651 0 
50.4814 16.4844 0 
58.1612 24.2899 0 
45.3947 0 0 
45.7749 5.05301 0 
45.3947 2.04975 0 
68.3162 28.9321 0 
54.7594 21.7738 0 
51.4788 18.4418 0 
64.6143 28.0315 0 
67.2879 28.9321 0 
45.2247 3.29583 0 
75 30 0 
73.9717 30 0 
72.9434 30 0 
44.9013 1.02487 0 
71.9152 30 0 
46.7539 10.709 0 
47.3145 12.1003 0 
66.2596 28.9321 0 
46.1933 9.31766 0 
70.8869 30 0 
47.875 13.4916 0 
52.0394 19.8331 0 
59.1432 25.8994 0 
55.3199 23.1651 0 
45.6327 7.92634 0 
69.8586 30 0 
48.4356 14.8829 0 
63.4832 28.1989 0 
65.2313 28.9321 0 
44.4079 0 0 
60.3877 26.8818 0 
53.2742 21.5636 0 
68.8303 30 0 
44.4079 2.04975 0 
62.5578 28.0315 0 
48.9962 16.2742 0 
56.4771 24.5037 0 
44.8502 6.23413 0 
67.802 30 0 
61.6323 27.8642 0 
44.2378 3.29583 0 
49.9936 18.2316 0 
64.1002 29.0994 0 
43.9145 1.02487 0 
66.7737 30 0 
59.3793 26.9231 0 
44.0678 4.54192 0 
50.991 20.1889 0 
60.6239 27.9055 0 
65.7455 30 0 
63.0719 29.0994 0 
57.4591 26.1133 0 
45.8292 11.8901 0 
45.2687 10.4988 0 
46.3898 13.2814 0 
43.4211 0 0 
52.2258 21.9194 0 
44.7081 9.10747 0 
43.4211 2.04975 0 
46.9504 14.6727 0 
62.1465 28.9321 0 
58.4385 27.0222 0 
64.7172 30 0 
44.1475 7.71616 0 
47.511 16.0641 0 
59.6155 27.9468 0 
43.251 3.29583 0 
53.4606 23.65 0 
63.6889 30 0 
42.9276 1.02487 0 
61.1182 28.9321 0 
48.0715 17.4554 0 
43.365 6.02395 0 
54.6178 24.9885 0 
49.069 19.4127 0 
62.6606 30 0 
58.6747 28.0459 0 
50.8222 21.6733 0 
42.4342 0 0 
60.1098 28.9734 0 
55.775 26.3271 0 
42.4342 2.04975 0 
52.057 23.4039 0 
56.7544 27.236 0 
44.344 11.6799 0 
49.6295 20.804 0 
44.9046 13.0712 0 
61.6323 30 0 
43.7834 10.2886 0 
45.4652 14.4625 0 
43.2228 8.89729 0 
57.7339 28.1449 0 
46.0258 15.8539 0 
59.1213 28.9734 0 
41.9408 1.02487 0 
42.6622 7.50598 0 
46.5863 17.2452 0 
60.604 30 0 
55.9067 27.3302 0 
52.3471 24.5393 0 
53.1846 25.3346 0 
47.1469 18.6365 0 
41.7707 4.59487 0 
56.8861 28.2391 0 
41.4474 0 0 
58.1804 29.0725 0 
50.6533 23.1578 0 
41.3487 1.8996 0 
59.6155 30 0 
54.3417 26.6731 0 
55.1468 27.4186 0 
47.7075 20.0278 0 
49.4607 22.2884 0 
57.2873 29.0725 0 
56.0384 28.3333 0 
43.4194 12.861 0 
42.8588 11.4697 0 
43.98 14.2524 0 
40.8553 0.874731 0 
58.627 30 0 
50.9434 24.2932 0 
40.9539 3.34878 0 
42.2982 10.0784 0 
44.5406 15.6437 0 
48.2681 21.4191 0 
41.7376 8.68711 0 
45.1011 17.035 0 
41.068 6.0769 0 
40.4605 0 0 
56.4396 29.1666 0 
55.2785 28.4216 0 
41.177 7.2958 0 
57.7339 30 0 
45.6617 18.4263 0 
40.2632 1.74946 0 
51.2336 25.4286 0 
52.071 26.2239 0 
52.9085 27.0192 0 
46.2223 19.8176 0 
49.2716 23.6764 0 
53.7135 27.7646 0 
55.6371 29.1666 0 
56.8408 30 0 
54.5186 28.51 0 
39.8684 0.874731 0 
[...]
POINT_DATA 2394
SCALARS cohesion float 1
LOOKUP_TABLE default
22.1412
22.0314
22.9666
23.0871
21.356
24.4281
23.1977
23.9039
21.3347
23.3407
22.4807
23.6987
24.2791
20.7693
32.0061
27.4601
21.8392
24.1651
32.2375
21.17
28.4742
30.2717
29.8499
24.1012
21.3358
27.6471
21.3741
29.1599
22.0392
29.1374
27.387
31.8158
23.5188
32.4754
22.2443
36.2587
23.3491
36.3767
30.9638
30.1977
23.1157
42.5538
25.7912
22.0773
47.8525
23.6235
22.4859
27.2464
47.2828
23.4318
45.9711
22.367
40.5298
25.4459
20.584
44.0444
31.0286
35.8198
44.0829
37.5047
23.8383
33.9472
29.5175
22.8083
30.8483
21.1833
32.6233
30.7436
23.839
26.6004
29.712
27.88
44.9732
36.9654
24.2199
27.5733
30.1625
28.1716
26.2734
22.637
29.1428
24.5181
22.845
31.4148
43.1076
24.7371
32.9992
21.5832
25.8373
33.3443
33.4801
30.2294
25.845
27.2893
25.6067
32.4388
26.2207
40.4244
33.874
32.1978
21.8897
30.8949
34.5243
36.9441
26.0107
29.1381
26.7246
24.5019
26.9126
23.3684
27.9391
36.7285
34.6175
24.0192
26.3993
26.7984
27.5526
28.208
34.0043
31.7139
27.3955
44.6231
23.0244
23.5845
24.8093
30.0458
37.2843
31.0578
30.5051
25.4092
36.9048
27.4368
37.1705
29.3773
50.2332
32.3957
42.4519
30.7606
32.3069
23.3644
34.0017
27.1271
45.2378
28.99
36.2706
38.2936
46.0791
50.6166
29.3864
30.5256
30.8948
24.2466
38.7983
46.8287
43.8112
33.8783
45.6585
43.134
30.4456
46.0994
40.0349
31.1985
26.303
46.2737
45.9608
31.6653
30.4349
24.3471
24.8598
43.1145
42.0317
42.4569
47.6798
35.247
27.224
42.0337
31.0178
37.0545
43.588
42.4384
37.5391
32.0382
36.3005
31.275
42.7557
23.7836
28.5233
30.8709
45.1904
31.2062
46.9388
37.106
34.7832
30.1725
30.0284
27.3217
26.0494
26.2198
32.3566
39.5579
25.5414
47.3245
41.3352
31.6813
44.1741
40.4211
31.819
22.6435
28.3615
34.5059
30.9337
33.3408
49.631
25.6863
27.8483
21.1985
40.5245
38.8858
30.0093
21.6758
40.2217
27.1289
30.0468
28.8334
23.7162
22.173
41.1036
49.0937
25.0632
32.8494
22.9582
34.0332
31.3847
23.1891
23.0503
36.1087
31.7856
30.4844
24.115
29.2577
29.4858
40.9121
35.6161
33.7432
47.7484
27.3024
24.7609
28.3333
33.649
26.6404
32.6757
24.5747
28.5821
26.0032
35.992
40.1432
26.3345
29.3183
38.8389
34.1295
28.4202
43.5457
29.1725
30.0392
27.2278
30.3008
30.4859
29.4044
33.8738
32.237
33.0557
27.1561
27.9851
38.3218
28.4052
40.6731
28.2584
34.1042
30.3344
28.4341
28.0538
26.6312
37.2418
25.2851
40.2378
29.9769
27.6502
38.7918
28.5361
35.1712
37.4108
40.8483
31.8054
29.9004
38.7275
30.8381
39.8783
32.0603
28.8097
29.2111
29.817
31.4112
29.0083
25.8356
28.8817
27.2282
39.0087
35.3183
39.895
35.2021
29.5965
29.6768
31.3998
35.1978
31.0698
39.6999
31.6413
42.0397
34.4702
29.1574
29.1466
34.288
27.0469
30.0882
30.4048
30.242
39.6425
31.2327
30.1487
34.6851
30.1585
36.5487
32.2993
29.3547
33.14
39.5183
37.2301
27.871
37.6601
28.5609
29.4414
27.5022
30.0046
33.3347
35.8603
26.7837
44.9025
28.4643
38.5109
29.6443
37.4335
36.9499
24.4985
36.4824
28.247
29.7958
36.5766
29.5898
34.5077
32.7327
38.5254
31.875
36.3604
27.4823
35.1909
37.0504
36.9314
36.4676
34.2854
21.8035
36.6838
37.9712
28.4811
38.2976
46.3611
30.2033
31.2981
33.2689
37.0148
36.3692
32.5384
26.0251
24.7691
25.3027
25.1769
28.3479
24.9605
29.2775
34.6989
37.7852
31.5549
33.2254
38.3374
24.6137
19.6879
37.7658
25.4095
39.8196
39.7521
33.7847
25.8679
33.4208
35.1536
29.8558
33.8544
40.5757
29.3138
25.643
26.1071
25.8337
44.9138
27.4728
26.09
25.5814
34.1226
32.0184
35.2672
36.7669
40.0213
25.6051
18.2577
27.817
25.7619
42.5736
38.2312
35.0178
43.1433
31.7851
37.4754
26.0006
29.7395
33.0154
28.0751
26.2694
37.8145
26.9853
26.9613
26.8656
35.2407
26.7382
31.537
28.7318
26.682
41.6538
26.4799
26.5821
19.2006
35.5229
35.8892
45.8532
26.4251
36.8257
28.2968
27.4983
44.2854
43.3633
29.1911
26.309
39.9868
29.6951
38.265
35.3881
31.6639
26.503
30.2494
35.1584
39.8062
27.8654
36.5081
26.613
41.1761
35.3844
19.1291
31.4475
26.6744
28.042
36.8944
27.574
34.6703
28.3233
46.6913
29.7113
43.0584
39.5738
34.9323
28.5517
43.1674
26.3313
44.2426
40.1971
31.583
38.6121
38.734
26.4732
38.0917
28.5475
48.9984
30.2706
35.2818
24.8782
26.1762
30.8302
29.6465
46.6998
28.1895
40.7848
38.8241
35.5281
41.9339
25.8353
27.7418
29.781
26.148
37.8316
33.4058
43.4038
28.9054
42.794
28.0543
38.8468
41.929
48.1718
25.7289
38.6557
36.4108
32.372
41.2731
32.562
30.1882
50.048
27.8243
33.4567
40.6934
25.7519
47.5744
39.9048
24.5185
31.2011
27.7503
30.5134
29.8666
25.3058
31.0195
40.2003
24.9682
42.9575
37.4931
39.6785
43.1305
33.119
43.6873
46.025
29.1666
49.8339
27.2212
29.9116
38.7931
24.8564
46.2592
41.9697
28.262
40.3946
50.3967
26.7473
41.2788
35.3718
27.3601
24.6634
29.9005
40.7878
34.633
33.8104
34.2765
29.135
28.6464
24.4014
35.6073
43.1883
25.1224
27.2677
52.2989
33.329
30.6914
41.8467
42.2099
41.1463
43.4624
47.7599
31.1365
46.5289
35.1718
41.7543
34.638
28.4022
27.0346
24.825
35.4104
39.6365
30.0457
27.231
33.8176
34.096
25.1636
45.9046
34.0603
26.7613
30.1159
50.2215
40.5942
30.1515
28.48
26.8803
41.0055
25.2788
26.8584
26.3316
39.4492
29.9295
32.8168
36.1422
44.0981
41.8954
43.9023
40.6323
40.1814
25.4154
26.015
34.9239
26.6659
41.7927
27.5534
30.6664
28.8165
31.6387
29.9461
35.0908
30.2804
25.3056
50.2777
41.7128
26.646
35.7227
34.2505
31.1567
42.7522
28.1677
33.1672
41.9229
25.3161
26.1456
37.8956
27.8431
39.1774
27.6251
25.251
36.7089
28.8678
25.1342
39.6899
25.9367
44.2474
42.1265
26.7009
38.4925
26.9717
32.9164
40.4363
27.5426
25.1196
46.6928
25.9048
29.0895
33.3153
28.2692
25.6622
26.0322
44.5511
30.1105
33.8259
37.5485
26.4519
24.9422
25.5081
28.1454
36.201
41.8747
24.8922
31.3828
28.0037
45.9153
25.8849
29.2763
25.0616
38.2774
36.8885
29.7157
37.3519
24.7254
23.8486
25.7534
34.1474
47.4968
32.2153
24.9545
31.9992
25.6756
29.1325
40.4095
24.7966
35.4595
35.7853
25.6729
33.0312
26.2869
29.8926
24.8802
22.1842
38.8164
27.1039
24.6109
25.3746
35.5395
24.7701
45.8555
26.0455
31.8294
22.4706
34.8244
30.0335
24.6568
29.4823
31.9409
26.1367
24.9769
27.0423
24.5904
45.3312
24.588
36.9048
25.0726
41.7182
44.6772
24.576
25.1862
32.92
24.5981
25.9125
39.2593
26.8452
35.2239
38.0362
24.6279
33.8714
28.6155
31.378
30.7869
30.7999
25.1086
43.2842
24.572
25.8264
22.7509
37.5871
24.823
24.6195
39.7191
32.1942
25.0202
24.5616
25.7548
18.7083
26.4531
33.0072
24.5815
28.1333
47.1391
24.9866
24.5953
33.7753
27.433
24.6167
29.2539
29.0683
28.896
24.9308
24.6039
37.4734
25.4902
24.6091
26.1485
24.9243
31.2304
24.6527
30.191
47.2393
41.7154
25.4521
24.6443
44.432
31.0363
30.0069
24.6755
24.9309
26.8119
32.0205
25.4427
24.6701
25.8279
24.9271
24.7341
21.4364
24.7098
34.9085
27.6159
24.7738
24.9449
41.555
26.4654
44.774
25.1963
24.756
28.9425
25.5655
25.002
24.8202
33.4893
24.784
25.188
31.0286
36.7506
37.772
26.5034
24.8796
31.5676
25.0428
30.5653
23.7022
25.2213
24.8246
39.8101
25.6092
27.0925
26.627
25.0507
24.9381
24.8721
46.1449
28.5683
47.5253
25.002
25.0862
23.0165
28.3016
25.2894
24.9222
25.6787
31.7472
25.0467
37.7009
25.1014
25.3468
27.7034
24.9649
26.1448
16.9878
25.8959
39.5097
25.0979
25.1294
25.8226
25.3757
25.0242
26.6788
25.5043
25.1369
25.1784
40.2725
28.9366
25.0668
29.0027
25.1661
25.2123
25.9521
32.963
25.1147
25.2971
25.3524
25.2058
27.9318
25.4501
25.3338
26.0346
25.1673
27.1896
25.2623
25.4744
25.2365
29.9928
25.5449
26.2795
25.3045
25.328
25.5623
25.7168
25.6384
25.3578
48.6771
45.9438
25.6061
25.4071
25.555
27.7587
38.2154
25.8098
25.4277
30.0224
26.7887
25.6176
26.0093
25.5188
30.4049
25.889
26.0114
25.5084
25.7954
37.2894
25.6631
25.7155
26.8698
35.7634
25.6087
25.895
26.1563
26.0996
40.1598
28.0946
25.8034
26.5581
25.7881
27.1921
26.3823
31.677
28.534
32.8983
25.9941
25.7256
31.0225
26.46
26.2153
26.4917
25.904
26.0393
25.8459
27.0391
26.4826
26.2971
39.7391
47.2897
28.4199
26.0507
26.1509
26.8886
27.5606
25.9893
43.2405
26.7665
25.4512
26.1921
26.6762
38.6583
26.2815
26.156
26.6097
27.613
27.3871
21.4881
26.3431
29.704
23.5434
26.8612
35.8385
25.0241
16.0982
26.451
26.5784
27.3744
26.3427
21.5194
28.0482
26.5438
26.9779
27.341
26.814
26.6139
30.8573
26.571
27.8556
24.1976
27.3197
26.6043
35.2476
26.7484
27.3754
27.0469
29.1641
27.7387
26.8401
26.8344
44.5651
27.545
27.0094
27.7945
27.7601
27.349
27.165
29.2357
36.5925
27.1095
27.8427
26.574
28.364
27.2561
32.2607
27.9432
27.7276
36.4153
37.4853
27.4194
28.3738
27.4249
31.7779
29.6901
37.8286
42.7412
27.5995
28.132
28.344
28.1347
26.914
30.5912
27.7218
27.6176
27.7521
28.4264
28.1801
27.9566
46.1018
28.5052
28.5427
28.8582
28.0555
28.733
37.4972
35.5552
28.1118
28.4095
25.7092
31.7825
24.1028
22.5851
29.1641
28.9611
32.4061
15.9954
30.4958
29.0152
19.6472
28.4964
29.0497
28.5165
20.5481
28.9225
26.7759
29.2777
26.7407
26.6833
30.713
28.0816
40.4472
29.3249
28.897
29.0183
36.8601
29.4995
29.7148
29.6576
24.0432
46.014
36.7962
29.9746
29.6268
29.3838
30.8855
29.5379
25.427
30.0652
27.8044
34.7503
30.2235
32.8095
47.2361
27.2429
30.3516
24.9414
27.0433
29.9252
30.0324
30.2186
30.7591
29.6052
30.6859
32.623
25.4024
30.9286
30.4475
30.9861
30.4268
29.8231
31.3131
24.8375
31.3327
29.248
23.3904
37.4222
31.3531
24.5431
22.0973
36.5532
45.4335
35.071
33.1958
16.6267
25.8118
18.5482
25.6779
31.8351
31.1391
31.8951
30.6793
32.0439
30.8749
28.4288
19.8424
31.5447
30.7485
32.6333
32.6043
32.6366
26.2483
31.9051
31.3154
24.4467
34.2945
23.5604
40.3908
30.6141
31.6658
25.0019
30.5583
27.4269
33.2528
33.0496
35.4347
33.3721
33.0023
30.0059
32.7609
32.0585
38.576
29.9493
35.7529
25.2103
42.8408
25.2322
33.2554
33.8814
25.4583
29.4115
22.9895
33.9788
19.573
33.6976
22.1305
30.5487
32.8143
28.4147
26.8545
25.4061
26.9751
25.7737
32.3563
18.2469
32.4325
34.3656
29.1754
25.4586
21.1565
34.6307
34.7603
33.1087
33.8537
34.9443
16.8992
36.7017
31.4152
32.8717
28.374
42.1337
34.266
34.5049
26.0744
35.4248
25.2454
26.5462
23.4984
40.5114
35.4214
36.3539
35.0697
25.3828
40.7551
29.9345
27.4309
33.2961
26.1338
33.7901
35.8631
27.5716
29.5732
21.9665
25.6763
33.1059
36.105
36.3604
23.5475
25.3696
28.7058
35.1637
23.4103
31.7693
31.8317
21.5452
35.7015
35.7683
27.3924
17.1277
36.702
25.3507
23.664
37.1198
37.1706
27.2364
37.4341
43.4063
26.6487
29.8385
35.4849
24.1342
17.7609
38.1769
33.661
33.4099
27.5879
26.9989
28.3148
25.1671
36.823
44.1666
21.858
25.7494
18.7777
37.8578
28.1258
38.1322
26.5609
37.6299
31.3879
35.5294
29.0633
35.1291
26.5946
35.4247
29.9866
18.4881
24.7222
35.0964
26.1022
25.3926
38.6063
27.2239
18.2487
23.8146
25.367
38.523
28.8685
29.4586
38.9291
23.7602
39.919
34.0658
21.1189
37.3282
33.6243
32.4286
26.4907
25.2655
37.3889
16.3742
21.5167
33.8776
24.4587
36.6103
25.6275
36.1724
37.0357
26.5834
29.7562
39.5525
25.5693
25.9543
22.8714
35.1097
29.3449
28.4016
22.4327
24.1447
27.3257
33.0445
30.5376
34.3503
18.0391
24.8125
38.933
41.8336
26.656
34.859
42.153
35.9626
26.7912
37.1808
23.0602
24.5925
16.7245
23.8257
45.9993
24.5691
24.0246
35.4694
34.0966
30.1932
35.2219
25.7835
29.3391
25.3689
23.6705
29.2242
34.8609
20.3929
22.7813
32.2486
24.6846
26.0986
27.7265
32.7973
26.5793
31.4935
23.8904
34.9676
29.0534
46.9589
40.2783
28.7594
20.5703
24.4427
26.2438
32.1908
18.8163
24.0209
23.9797
28.8461
36.4157
35.8669
19.6248
35.7855
31.1703
40.1644
31.9059
24.5967
46.6265
26.3026
24.6379
33.6838
23.3544
25.5924
25.4347
36.2142
28.0696
18.3421
26.8135
31.7917
35.9963
31.3505
24.9434
21.3678
31.9359
24.2209
28.9578
29.4044
28.9105
23.52
33.6873
41.2752
24.1417
32.013
31.6166
22.413
28.322
25.2688
33.2646
27.4686
45.7449
28.1887
37.0306
35.015
36.0528
31.9251
27.2116
22.2998
31.75
24.7508
20.9528
32.5597
26.0897
25.7093
27.3151
32.7993
23.6119
27.3529
39.1633
24.9309
37.8231
17.4047
32.2384
31.168
34.2676
35.7962
32.3226
29.0738
23.7823
31.4306
33.1513
22.6419
41.0784
37.6677
29.642
26.162
28.7229
26.1873
30.8402
22.8603
25.1247
33.1217
26.4129
34.9824
34.4522
30.0325
31.5468
23.5293
35.2103
25.766
32.9272
32.3705
25.8143
22.3009
32.6768
27.919
20.3871
32.0555
43.4224
24.3785
33.0385
36.422
35.2673
30.9046
32.4557
37.0872
23.2658
30.4611
32.3242
27.9965
23.0146
29.5742
25.4443
20.6527
35.285
32.9638
32.7978
36.4176
25.3627
33.6541
37.1761
39.4817
44.1835
29.0738
23.653
20.5189
31.0322
22.929
24.2513
34.3731
35.4241
24.9009
33.4457
32.5732
33.7364
26.4649
33.3011
20.7088
31.3349
34.902
26.5588
24.1756
35.5523
32.1325
32.3601
33.8626
23.4452
25.8349
28.8625
32.8421
27.6021
32.7005
33.79
24.8496
35.9413
21.0356
23.8612
31.8249
32.3304
30.724
28.8152
26.0481
32.7255
31.7203
43.527
25.5948
36.3004
33.8676
36.8366
23.3987
27.8365
26.1311
33.0538
24.0103
37.528
35.1748
31.8899
25.5784
32.0748
36.6723
32.3904
34.9457
29.8554
32.6329
40.8496
19.8085
25.8288
37.0761
41.2903
31.7839
35.4044
33.9855
27.239
24.201
24.362
24.9102
33.1263
25.283
32.7103
37.0983
19.9788
29.2423
36.8553
30.3287
34.5025
28.8567
26.9603
36.7501
34.4987
26.9395
24.4611
31.1087
25.5562
32.9459
28.5718
37.9962
34.8376
31.5963
34.0299
25.0926
27.8531
37.0854
37.6553
35.2238
25.3395
33.5811
25.7177
34.3253
38.6603
29.1214
24.4757
29.0953
33.0905
42.0077
35.846
37.4319
31.3523
37.4108
37.107
31.5608
23.3799
37.1311
37.9032
36.1733
33.7165
21.4152
25.3371
25.1906
36.7216
36.7558
29.4408
33.4795
37.2642
37.4476
35.4302
37.7666
35.9683
41.317
26.9508
41.3502
36.1927
34.1687
22.444
30.4712
38.5913
30.3478
30.378
22.9154
34.2937
37.7
38.8967
38.0866
36.2652
22.8735
36.5002
36.5189
33.9354
25.3744
38.8224
26.7416
27.3597
32.6924
30.3191
38.1762
31.1198
28.5554
38.1232
32.8073
34.0604
36.9735
36.5985
40.321
30.404
37.8035
23.3727
37.223
34.7856
34.3116
26.3861
38.3248
36.1824
39.0349
39.8965
36.9644
34.2226
26.5984
37.9352
36.4869
29.3445
26.1813
34.9318
38.3914
37.4111
39.5981
36.3395
39.886
36.6424
26.7403
37.462
34.6615
37.224
34.9219
45.3925
36.8635
33.2953
30.8678
24.8562
39.6465
27.1656
26.0668
39.6778
39.9355
26.791
35.5296
37.4433
19.9785
33.0533
35.1911
39.1507
38.342
37.0216
28.9265
25.6582
28.9045
35.9283
39.996
37.4635
35.1685
40.2891
32.5273
25.1525
26.0127
40.5127
28.9699
30.4725
38.8653
37.4969
35.2579
34.9899
43.3873
38.4766
38.4283
30.3151
38.2093
36.6868
35.0685
40.1842
29.9802
34.9874
26.5868
38.4109
39.1769
25.7729
26.9379
34.9257
39.806
39.2897
37.1615
37.3271
39.4308
38.5956
32.2149
27.071
38.1987
34.3194
34.8297
34.1292
35.5521
29.8062
25.2771
39.6511
41.5773
37.1541
20.333
35.0723
39.2849
38.0918
24.2831
37.0883
28.9848
39.6031
34.8701
29.8059
28.3338
22.7027
27.966
30.3951
36.0478
39.0452
36.9783
39.4122
34.8363
28.6299
26.2029
38.7004
31.5977
39.1197
36.5149
34.6707
34.9426
38.9275
24.8543
28.0748
38.8583
36.7803
36.3957
34.7024
42.3193
25.6199
39.1397
20.9476
36.6207
27.7166
34.892
34.4808
39.2068
36.8186
36.6084
36.5676
42.9621
34.3094
39.5009
33.1297
34.6123
23.8026
34.3934
23.8627
37.0892
27.5765
31.5469
36.8899
32.8401
30.1451
19.9009
34.0218
36.3452
39.4983
36.884
40.8223
27.4215
35.8327
44.4956
33.9513
26.6367
31.1766
39.2583
25.5708
39.3792
19.5889
36.3423
24.6073
37.7611
33.7904
24.7715
39.1736
33.7872
34.9806
25.7252
24.0031
36.2927
39.2534
33.8092
31.2663
41.9587
37.0762
34.4807
35.7429
29.5258
26.4477
33.372
22.7491
28.6843
39.3133
37.899
39.0233
43.7191
28.0024
32.7305
36.9738
27.6463
35.2058
18.3592
33.2901
26.3472
39.4506
24.5858
29.3893
19.5572
36.3346
24.2863
36.0212
41.7821
26.3393
24.8632
33.2089
42.7405
39.544
38.1037
26.3525
34.8686
36.3476
35.8243
19.7446
33.4026
26.8961
46.2186
39.9127
29.8899
25.2624
36.7973
21.4551
36.5196
24.0229
33.24
45.2278
39.5116
36.4692
37.0574
34.4553
37.3046
41.3779
38.2317
33.3414
32.5669
26.142
27.5091
29.5082
39.8774
23.7245
21.7881
22.3622
30.3383
21.4679
20.8752
33.1287
25.7111
28.6876
40.6678
37.7242
41.6937
37.1488
15.5152
24.5106
30.005
40.7435
20.9462
33.5736
44.7023
22.111
35.0836
42.5331
37.7841
24.4933
26.4049
29.8131
38.4849
45.3346
40.5358
33.7791
40.5917
33.5459
23.296
40.4455
23.9202
38.6089
38.6761
41.8416
52.7537
31.9657
29.7724
24.7434
28.9102
34.2176
38.5904
39.5588
20.1996
24.0603
31.3235
14.7247
25.6264
40.933
21.344
43.5281
24.8571
33.8094
24.2355
40.219
39.5953
23.2883
43.1256
35.422
25.1426
42.0691
47.0147
22.2625
35.4455
34.2809
46.5827
20.4655
25.2628
41.8453
35.7441
50.3537
43.2106
24.1965
34.2668
44.0732
36.583
18.5432
29.6068
32.1843
42.9747
32.1655
36.6467
23.2706
24.1543
23.9889
45.5907
39.0646
43.7564
24.2983
28.2234
52.3857
19.2605
35.4043
21.7952
24.0359
34.3052
43.8541
33.1762
25.4755
47.4964
42.7536
32.0805
36.0977
45.6435
44.7369
24.1297
22.9123
46.7144
21.5151
50.9025
48.2631
23.8985
43.4292
37.3545
34.4238
36.3017
45.5048
47.0818
37.708
33.0443
31.9538
27.2545
48.3804
21.354
23.2761
17.13
24.5907
44.7344
31.2393
37.3998
25.1263
21.1873
26.7763
41.819
48.8502
46.7815
29.6613
25.3051
45.3965
35.8239
23.916
38.017
49.3261
39.3675
20.8064
35.9831
47.3791
29.5426
26.7998
34.0716
47.2396
24.2405
42.4834
37.7481
48.1847
21.5922
25.1944
40.5977
18.0632
47.5696
29.3737
37.6317
44.6841
32.4743
48.0498
38.0395
29.016
40.6775
25.804
24.1408
50.2665
25.6857
25.5784
48.1928
24.9462
33.8258
48.1393
22.9252
22.3122
35.1267
37.6306
30.5774
31.4371
27.2938
20.7999
48.1731
22.9768
47.2158
35.1209
24.2143
38.3209
49.0944
19.4968
34.1971
21.3362
37.3488
36.47
25.1694
49.2408
40.4834
45.053
31.6504
24.9703
32.6392
28.8271
20.9513
26.2658
46.1872
33.4302
26.7992
27.2406
37.925
21.8457
48.1631
38.3249
23.1454
31.335
22.0623
33.545
39.7341
44.6427
26.6536
25.3136
37.6602
24.1411
37.2995
17.9748
48.3435
30.6958
30.6283
23.6801
21.0247
29.7171
27.2054
24.3679
37.3173
37.4393
26.4372
43.3107
29.065
27.9909
27.5813
26.1961
47.6643
22.0241
38.4242
28.062
25.5375
41.1632
23.6203
32.6338
25.5918
37.4973
36.2845
42.9357
33.7722
16.5151
29.0234
27.3916
22.2354
24.7044
42.9261
33.2368
24.6022
46.8712
26.5234
25.2641
31.6671
37.1703
26.3164
25.5996
23.4481
29.5664
27.9929
22.5087
42.3932
26.5311
31.7637
39.5363
41.8684
34.729
28.6371
32.2711
46.0158
30.3141
30.3329
35.9559
28.3919
22.2824
24.4663
29.9982
26.8558
23.788
41.7588
23.41
25.9416
34.3829
25.0933
17.6883
30.72
26.714
27.9402
24.7858
42.1297
36.7839
23.9363
30.6191
45.8446
25.1236
36.0253
25.8894
28.8408
29.3851
40.5844
26.8169
36.6435
23.5005
28.7546
25.0335
41.9203
35.274
45.1709
26.9271
27.7469
27.4569
35.1375
32.2084
31.0392
25.1348
33.9124
26.9786
24.8297
26.4571
29.9297
41.7234
24.4356
45.0298
19.6034
28.504
29.1116
29.2725
35.6229
33.7177
31.8108
28.773
25.6806
26.5699
40.4993
25.369
45.6471
29.4306
35.1806
24.3587
24.2809
28.3605
32.8977
29.1596
41.1795
25.602
46.0561
42.046
26.2585
26.426
24.2049
21.2814
36.0698
26.8108
26.7857
26.4177
31.5022
35.2673
26.4836
41.5363
25.1348
33.4978
35.6691
46.0406
43.2014
26.7584
25.2627
29.0024
41.5475
25.5068
28.9488
25.1697
43.4972
36.6142
46.6168
24.3837
27.3021
24.6413
25.4611
42.2737
28.4662
43.3198
32.1434
47.7082
36.5698
24.8364
28.8199
26.5686
31.8808
34.0027
27.0988
24.423
31.1925
43.8113
48.2841
37.7479
28.8574
27.7159
29.0081
33.2878
43.6133
25.9425
49.3142
37.7888
29.7686
25.2101
30.0054
41.3946
30.7374
50.0079
34.9942
32.4488
46.1456
39.0415
29.6644
31.7625
32.4067
29.9368
42.2254
38.8788
49.8605
30.1399
47.2203
32.4317
42.0917
34.5055
29.9686
39.7787
47.1409
50.2547
32.3622
30.4971
46.4116
50.9078
39.5373
40.2389
34.2141
33.9494
50.5617
40.2356
45.4727
32.1442
40.3212
38.4118
50.02
43.8566
40.8432
49.7986
39.4255
SCALARS friction float 1
LOOKUP_TABLE default
9.3097
9.43243
12.0798
12.2792
9.23957
12.0857
12.5234
12.3542
9.60862
13.5899
12.8788
12.2598
13.3041
9.58484
12.2235
12.9105
13.4367
12.7201
13.8089
9.90455
15.6597
12.2114
15.5202
12.7427
13.0964
15.4241
9.42029
12.4872
13.1741
12.3381
14.44
12.3193
12.3132
9.83161
9.33744
8.84813
12.1776
8.11113
8.62147
10.2782
12.541
7.62303
10.6313
9.07009
7.06159
12.1236
12.4935
11.5668
7.03289
12.1684
7.59049
9.27229
8.44362
10.78
13.0867
7.2258
10.6113
6.2155
6.07862
8.74316
11.8398
8.9904
6.64711
8.82831
9.08694
12.3395
9.00833
8.83828
11.7325
9.75661
8.51679
9.57642
5.7018
7.85365
8.68088
6.77815
8.11073
8.48178
9.81528
11.302
8.0598
11.3316
10.8928
7.74232
5.48397
8.4348
7.63449
11.8607
9.03228
7.61335
8.31631
8.5526
10.8366
6.3694
9.57877
7.99064
8.42809
5.41832
7.34922
7.81767
11.7125
8.58852
8.24968
7.15687
8.89964
8.86263
10.6215
7.10302
9.272
10.7184
8.00497
7.96073
5.72847
10.9145
9.38969
9.24261
8.84956
10.3279
8.10243
7.45985
8.71096
6.73151
8.21404
10.8585
10.103