# vtk DataFile Version 3.0
File generated from DClib
ASCII

DATASET UNSTRUCTURED_GRID
POINTS 2394 float
75 0 0 
74.0132 0 0 
75 1 0 
74.0132 1 0 
73.0263 0 0 
75 2 0 
72.9355 1.08748 0 
73.9223 2.08748 0 
72.0395 0 0 
75 3 0 
72.8446 2.17496 0 
71.9486 1.08748 0 
73.9223 3.08748 0 
71.0526 0 0 
75 4 0 
72.8838 3.58748 0 
71.5238 2.50694 0 
70.6278 1.41947 0 
73.9615 4.5 0 
70.0658 0 0 
75 5 0 
71.563 3.91947 0 
72.9229 5 0 
69.641 1.41947 0 
70.203 2.83893 0 
73.9615 5.5 0 
69.0789 0 0 
75 6 0 
69.1476 2.44434 0 
72.9229 6 0 
71.6239 5.5 0 
70.2639 4.41947 0 
68.5855 1.02487 0 
73.9615 6.5 0 
68.0921 0 0 
75 7 0 
68.0921 2.04975 0 
72.9229 7 0 
71.6239 6.5 0 
68.6542 3.74338 0 
67.5987 1.02487 0 
73.9615 7.5 0 
70.3248 6 0 
67.1053 0 0 
75 8 0 
67.5987 3.34878 0 
67.1053 2.04975 0 
68.7151 5.32391 0 
73.0785 8.1 0 
66.6118 1.02487 0 
74.1171 8.6 0 
66.1184 0 0 
75 9 0 
66.6118 3.34878 0 
66.1184 2.04975 0 
71.6239 8.5 0 
67.1053 4.64782 0 
69.1755 7.15213 0 
70.3248 8 0 
73.2341 9.2 0 
65.625 1.02487 0 
74.1171 9.6 0 
67.5657 6.47604 0 
65.1316 0 0 
75 10 0 
65.1316 2.04975 0 
71.7795 9.6 0 
73.0785 10.1 0 
64.6382 1.02487 0 
65.1137 3.65591 0 
73.9615 10.5 0 
65.6071 4.95495 0 
68.0262 8.30425 0 
69.1755 9.15213 0 
64.1447 0 0 
66.0569 6.38442 0 
75 11 0 
71.6239 10.5 0 
70.3248 10 0 
64.1447 2.04975 0 
72.9229 11 0 
63.6513 1.02487 0 
64.1268 3.65591 0 
73.9615 11.5 0 
66.5173 8.21264 0 
63.1579 0 0 
75 12 0 
63.1579 2.04975 0 
64.1089 5.26208 0 
73.0785 12.1 0 
67.2259 9.58662 0 
68.3752 10.4345 0 
62.6645 1.02487 0 
64.5587 6.69155 0 
63.14 3.65591 0 
74.1171 12.6 0 
62.1711 0 0 
65.0085 8.12102 0 
70.3248 12 0 
71.6239 12.5 0 
62.1711 2.04975 0 
75 13 0 
65.717 9.495 0 
68.9358 11.8258 0 
62.6466 4.95495 0 
73.2341 13.2 0 
61.6776 1.02487 0 
63.0969 6.3615 0 
74.1171 13.6 0 
61.6776 3.34878 0 
61.1842 0 0 
66.4255 10.869 0 
63.5467 7.79097 0 
61.1842 2.04975 0 
71.7795 13.6 0 
75 14 0 
73.0785 14.1 0 
60.6908 1.02487 0 
63.9359 9.23812 0 
73.9615 14.5 0 
61.1842 4.64782 0 
66.9861 12.2603 0 
61.6346 6.05437 0 
60.6908 3.34878 0 
70.3248 14 0 
60.1974 0 0 
64.6444 10.6121 0 
71.6239 14.5 0 
62.085 7.46091 0 
60.1974 2.04975 0 
75 15 0 
68.9358 13.8258 0 
72.9229 15 0 
59.7039 1.02487 0 
65.5009 12.0501 0 
62.4741 8.90807 0 
73.9615 15.5 0 
67.5467 13.6516 0 
59.2105 0 0 
60.2109 5.66149 0 
62.8633 10.3552 0 
60.6613 7.06804 0 
75 16 0 
59.1118 1.8996 0 
66.0615 13.4414 0 
69.4963 15.2171 0 
73.0785 16.1 0 
63.7198 11.7932 0 
59.2712 4.40082 0 
61.0276 8.51671 0 
58.6184 0.874731 0 
58.7778 3.10178 0 
68.1073 15.0429 0 
74.1171 16.6 0 
70.3248 16 0 
58.2237 0 0 
71.6239 16.5 0 
64.5763 13.2312 0 
61.4167 9.96386 0 
75 17 0 
66.6221 14.8327 0 
58.0263 1.74946 0 
59.2376 6.67516 0 
62.2346 11.583 0 
73.2341 17.2 0 
57.6316 0.874731 0 
59.6039 8.12383 0 
57.6923 2.95164 0 
58.2979 5.41449 0 
68.6678 16.4342 0 
74.1171 17.6 0 
65.1369 14.6226 0 
63.0911 13.0211 0 
57.2368 0 0 
59.9702 9.5725 0 
71.7795 17.6 0 
57.1382 1.8996 0 
75 18 0 
67.1826 16.2241 0 
69.4963 17.2171 0 
60.8215 11.2716 0 
57.3582 4.15382 0 
73.0785 18.1 0 
56.7434 1.02487 0 
63.6517 14.4124 0 
56.8041 3.10178 0 
57.8154 6.75019 0 
58.376 8.14151 0 
65.6974 16.0139 0 
73.9615 18.5 0 
61.6059 12.8109 0 
70.3248 18 0 
56.25 0 0 
71.6239 18.5 0 
56.25 2.04975 0 
58.7423 9.59018 0 
56.8757 5.48952 0 
75 19 0 
59.3749 10.8802 0 
67.7432 17.6154 0 
72.9229 19 0 
64.2122 15.8037 0 
62.1665 14.2022 0 
55.7566 1.02487 0 
60.1928 12.4994 0 
66.258 17.4052 0 
68.5717 18.3983 0 
73.9615 19.5 0 
55.7563 3.4912 0 
55.2632 0 0 
56.3932 6.82522 0 
56.9538 8.21654 0 
62.727 15.5935 0 
55.2022 2.43916 0 
57.5143 9.60785 0 
75 20 0 
64.7728 17.195 0 
60.6813 13.992 0 
58.147 10.8979 0 
73.0785 20.1 0 
58.7796 12.188 0 
55.3905 5.27933 0 
54.7088 1.41428 0 
66.8186 18.7965 0 
70.3248 20 0 
74.1171 20.6 0 
63.2876 16.9848 0 
61.2418 15.3833 0 
69.1323 19.7896 0 
54.2763 0 0 
71.6239 20.5 0 
59.2681 13.6806 0 
65.3334 18.5863 0 
75 21 0 
54.1544 2.82857 0 
55.4686 8.00635 0 
54.908 6.61503 0 
56.0291 9.39767 0 
73.2341 21.2 0 
53.7219 1.41428 0 
56.5897 10.789 0 
61.8024 16.7746 0 
57.2224 12.079 0 
63.8482 18.3761 0 
59.7566 15.1731 0 
67.3791 20.1878 0 
74.1171 21.6 0 
53.7886 4.61671 0 
53.2895 0 0 
71.7795 21.6 0 
57.7829 13.4704 0 
53.2285 2.43916 0 
65.8939 19.9776 0 
75 22 0 
62.363 18.1659 0 
60.3172 16.5644 0 
73.0785 22.1 0 
52.7961 1.02487 0 
53.9834 7.79616 0 
54.5439 9.18748 0 
64.4087 19.7674 0 
58.2714 14.9629 0 
70.3248 22 0 
53.4228 6.40485 0 
73.9615 22.5 0 
55.1045 10.5788 0 
69.1323 21.7896 0 
52.7351 3.7382 0 
52.3026 0 0 
67.9397 21.5791 0 
55.6651 11.9701 0 
71.6239 22.5 0 
52.3026 2.04975 0 
60.8778 17.9557 0 
62.9235 19.5573 0 
58.832 16.3542 0 
75 23 0 
66.4545 21.3689 0 
56.2257 13.3614 0 
72.9229 23 0 
51.8092 1.02487 0 
52.3693 5.52633 0 
64.9693 21.1588 0 
51.8092 3.34878 0 
56.7862 14.7527 0 
73.9615 23.5 0 
61.4383 19.3471 0 
59.3926 17.7456 0 
51.4145 1.8996 0 
51.3158 0 0 
53.0587 8.97729 0 
52.4982 7.58597 0 
53.6193 10.3686 0 
71.2128 23.5672 0 
63.4841 20.9486 0 
54.1799 11.7599 0 
57.3468 16.1441 0 
75 24 0 
50.9211 0.874731 0 
51.3158 4.64782 0 
54.7405 13.1512 0 
72.5118 24.0672 0 
69.5776 23.6331 0 
50.9211 3.19864 0 
68.385 23.4226 0 
59.9531 19.1369 0 
61.9989 20.7384 0 
55.301 14.5426 0 
57.9074 17.5354 0 
51.4447 6.70746 0 
67.1321 23.2061 0 
50.5263 1.74946 0 
73.5504 24.5672 0 
50.3289 0 0 
65.6469 22.9959 0 
55.8616 15.9339 0 
75 25 0 
51.5735 8.7671 0 
52.1341 10.1584 0 
49.9342 0.874731 0 
52.6947 11.5497 0 
60.5137 20.5282 0 
58.4679 18.9267 0 
72.1008 25.1344 0 
53.2553 12.941 0 
49.8355 3.34878 0 
56.4222 17.3252 0 
53.8158 14.3324 0 
70.4655 25.2003 0 
73.5504 25.5672 0 
49.4408 1.8996 0 
49.3421 0 0 
63.815 23.2124 0 
59.0285 20.318 0 
49.9595 6.49727 0 
54.3764 15.7237 0 
61.0743 21.9195 0 
56.9827 18.7165 0 
75 26 0 
68.8303 25.2661 0 
49.3989 5.10595 0 
67.5774 25.0496 0 
48.8487 1.02487 0 
62.3298 23.0022 0 
50.6489 9.94823 0 
66.3246 24.8331 0 
50.0883 8.55691 0 
51.2095 11.3395 0 
54.937 17.115 0 
51.7701 12.7309 0 
72.4347 26.4726 0 
59.5891 21.7093 0 
57.5433 20.1078 0 
48.3553 0 0 
52.3306 14.1222 0 
48.3553 2.04975 0 
70.9797 26.4993 0 
55.4975 18.5063 0 
73.8843 26.9053 0 
75 27 0 
52.8912 15.5135 0 
47.8618 1.02487 0 
69.3444 26.5651 0 
64.4926 25.0496 0 
58.1039 21.4991 0 
47.9186 3.80692 0 
53.4518 16.9048 0 
68.3162 26.5651 0 
60.1497 23.1006 0 
56.0581 19.8976 0 
67.0633 26.3486 0 
49.1637 9.73804 0 
49.7243 11.1294 0 
47.3684 0 0 
48.6031 8.34672 0 
50.2849 12.5207 0 
47.3684 2.04975 0 
61.4051 24.1834 0 
66.035 26.3486 0 
48.0426 6.9554 0 
54.0123 18.2961 0 
50.8454 13.912 0 
72.7686 27.8107 0 
73.8843 27.9053 0 
75 28 0 
47.482 5.56409 0 
71.3136 27.8374 0 
62.6606 25.2661 0 
58.6645 22.8904 0 
51.406 15.3033 0 
56.6187 21.2889 0 
46.875 1.02487 0 
46.9318 3.80692 0 
69.8586 27.8642 0 
54.5729 19.6874 0 
51.9666 16.6946 0 
68.8303 27.8642 0 
46.3816 0 0 
64.203 26.5651 0 
46.3816 2.04975 0 
67.802 27.8642 0 
57.1793 22.6803 0 
52.5271 18.0859 0 
48.2391 10.9192 0 
59.6464 24.5 0 
47.6785 9.52785 0 
48.7997 12.3105 0 
72.856 28.9053 0 
75 29 0 
73.9717 29 0 
47.1179 8.13653 0 
66.7737 27.8642 0 
49.3602 13.7018 0 
71.8278 28.9053 0 
45.8882 1.02487 0 
60.9019 25.5828 0 
46.5574 6.74521 0 
49.9208 15.0931 0 
63.0719 26.7325 0 
70.3727 28.9321 0 
53.0877 19.4772 0 
65.7455 27.8642 0 
69.3444 28.9321 0 
62.1465 26.5651 0 
50.4814 16.4844 0 
58.1612 24.2899 0 
45.3947 0 0 
45.7749 5.05301 0 
45.3947 2.04975 0 
68.3162 28.9321 0 
54.7594 21.7738 0 
51.4788 18.4418 0 
64.6143 28.0315 0 
67.2879 28.9321 0 
45.2247 3.29583 0 
75 30 0 
73.9717 30 0 
72.9434 30 0 
44.9013 1.02487 0 
71.9152 30 0 
46.7539 10.709 0 
47.3145 12.1003 0 
66.2596 28.9321 0 
46.1933 9.31766 0 
70.8869 30 0 
47.875 13.4916 0 
52.0394 19.8331 0 
59.1432 25.8994 0 
55.3199 23.1651 0 
45.6327 7.92634 0 
69.8586 30 0 
48.4356 14.8829 0 
63.4832 28.1989 0 
65.2313 28.9321 0 
44.4079 0 0 
60.3877 26.8818 0 
53.2742 21.5636 0 
68.8303 30 0 
44.4079 2.04975 0 
62.5578 28.0315 0 
48.9962 16.2742 0 
56.4771 24.5037 0 
44.8502 6.23413 0 
67.802 30 0 
61.6323 27.8642 0 
44.2378 3.29583 0 
49.9936 18.2316 0 
64.1002 29.0994 0 
43.9145 1.02487 0 
66.7737 30 0 
59.3793 26.9231 0 
44.0678 4.54192 0 
50.991 20.1889 0 
60.6239 27.9055 0 
65.7455 30 0 
63.0719 29.0994 0 
57.4591 26.1133 0 
45.8292 11.8901 0 
45.2687 10.4988 0 
46.3898 13.2814 0 
43.4211 0 0 
52.2258 21.9194 0 
44.7081 9.10747 0 
43.4211 2.04975 0 
46.9504 14.6727 0 
62.1465 28.9321 0 
58.4385 27.0222 0 
64.7172 30 0 
44.1475 7.71616 0 
47.511 16.0641 0 
59.6155 27.9468 0 
43.251 3.29583 0 
53.4606 23.65 0 
63.6889 30 0 
42.9276 1.02487 0 
61.1182 28.9321 0 
48.0715 17.4554 0 
43.365 6.02395 0 
54.6178 24.9885 0 
49.069 19.4127 0 
62.6606 30 0 
58.6747 28.0459 0 
50.8222 21.6733 0 
42.4342 0 0 
60.1098 28.9734 0 
55.775 26.3271 0 
42.4342 2.04975 0 
52.057 23.4039 0 
56.7544 27.236 0 
44.344 11.6799 0 
49.6295 20.804 0 
44.9046 13.0712 0 
61.6323 30 0 
43.7834 10.2886 0 
45.4652 14.4625 0 
43.2228 8.89729 0 
57.7339 28.1449 0 
46.0258 15.8539 0 
59.1213 28.9734 0 
41.9408 1.02487 0 
42.6622 7.50598 0 
46.5863 17.2452 0 
60.604 30 0 
55.9067 27.3302 0 
52.3471 24.5393 0 
53.1846 25.3346 0 
47.1469 18.6365 0 
41.7707 4.59487 0 
56.8861 28.2391 0 
41.4474 0 0 
58.1804 29.0725 0 
50.6533 23.1578 0 
41.3487 1.8996 0 
59.6155 30 0 
54.3417 26.6731 0 
55.1468 27.4186 0 
47.7075 20.0278 0 
49.4607 22.2884 0 
57.2873 29.0725 0 
56.0384 28.3333 0 
43.4194 12.861 0 
42.8588 11.4697 0 
43.98 14.2524 0 
40.8553 0.874731 0 
58.627 30 0 
50.9434 24.2932 0 
40.9539 3.34878 0 
42.2982 10.0784 0 
44.5406 15.6437 0 
48.2681 21.4191 0 
41.7376 8.68711 0 
45.1011 17.035 0 
41.068 6.0769 0 
40.4605 0 0 
56.4396 29.1666 0 
55.2785 28.4216 0 
41.177 7.2958 0 
57.7339 30 0 
45.6617 18.4263 0 
40.2632 1.74946 0 
51.2336 25.4286 0 
52.071 26.2239 0 
52.9085 27.0192 0 
46.2223 19.8176 0 
49.2716 23.6764 0 
53.7135 27.7646 0 
55.6371 29.1666 0 
56.8408 30 0 
54.5186 28.51 0 
39.8684 0.874731 0 
[...]
POINT_DATA 2394
SCALARS cohesion float 1
LOOKUP_TABLE default
27.8566
27.3465
23.011
22.8451
27.8674
33.1558
22.8228
33.6905
26.9459
30.9136
34.3929
23.6145
31.0092
25.7776
32.5822
30.5009
33.217
25.7258
31.0021
24.5078
29.6612
29.3281
28.6428
25.7456
32.0521
34.9905
26.8702
47.6624
32.2729
48.4194
32.7959
26.4741
23.9631
59.7969
28.5714
62.9182
34.7495
65.4268
60.2738
27.5391
23.5973
63.6238
45.525
29.9393
57.412
25.6411
33.4578
26.7307
60.3958
24.6055
54.6998
29.5905
48.5522
27.2662
34.2907
58.1266
19.9269
65.127
62.6975
46.929
25.2578
39.522
51.6458
31.4434
32.5614
35.0745
41.859
32.6536
25.8933
26.2403
28.6477
21.7565
60.0379
50.7984
31.5232
45.6625
27.6735
26.0632
31.4433
38.1584
25.983
26.9181
25.176
27.3295
63.8476
32.7552
28.5103
36.1591
23.7343
29.2712
44.859
27.1062
28.0063
52.1394
27.9952
31.9546
32.3885
61.1721
27.4596
29.9511
37.118
33.7147
47.6429
26.0064
24.6732
33.7747
28.7482
46.5177
30.9291
29.2847
33.6125
24.5481
57.0072
36.7023
31.1068
27.0974
25.697
29.4572
54.2792
21.7563
27.2405
27.9822
41.3307
29.3138
25.6417
33.5265
28.0774
18.8994
55.115
38.04
20.1903
28.3867
18.5247
29.307
28.5908
58.2634
20.4075
30.0731
35.0255
34.2837
31.2401
53.5779
21.8514
37.5982
31.2701
16.3833
21.3201
28.4956
32.1507
53.8926
29.3063
28.7027
16.8054
24.8703
19.441
34.3187
23.6213
35.639
38.2602
27.5932
17.8025
36.1159
50.3378
28.2174
28.5763
29.5281
47.7684
28.7403
31.6239
20.3758
29.731
19.4074
37.2423
34.7881
45.169
30.835
36.2525
28.3649
18.0807
28.2962
26.4999
33.3269
27.5326
29.2221
22.3517
25.8609
43.9526
42.3209
16.6183
23.7902
37.5956
26.7122
33.4416
21.6686
35.5701
40.1101
33.1459
23.1984
24.2776
26.4908
22.1188
16.4409
25.2129
30.5042
33.3153
24.5975
22.3953
26.7104
29.211
31.9022
38.2657
36.4003
16.9295
29.3575
36.4216
33.3534
22.4542
27.7545
22.4882
34.6805
29.0186
28.7418
31.3544
21.6432
35.1618
38.73
20.801
18.3174
32.4141
30.4999
39.2203
29.2559
21.9455
39.1255
24.7472
31.7101
34.2538
34.0733
41.1323
31.5938
20.5665
19.7566
25.1713
22.539
19.0043
37.6591
41.9318
29.721
32.1001
43.3043
28.3045
27.8595
34.8326
42.9683
23.642
18.6548
43.7656
31.9199
27.5651
34.383
31.5055
19.6867
45.0043
30.9572
41.3302
20.0041
46.9762
29.473
33.2637
46.368
22.5932
40.8079
32.7452
25.1979
28.4967
18.4342
37.6927
44.014
26.8548
37.7846
31.6158
27.5042
44.3816
26.2064
19.922
36.4209
26.2641
25.4246
33.7805
34.3375
32.9024
27.5857
21.4482
36.3926
43.1652
20.7307
17.6742
36.0994
32.3127
30.8101
25.9138
36.1292
35.4798
26.3002
34.8249
25.5648
42.6844
20.0473
25.2769
27.0735
35.791
35.1843
36.9705
34.2272
35.2891
17.614
35.5213
32.0466
23.7895
32.6271
20.3118
40.0342
25.0086
37.9248
26.7895
30.1949
23.391
20.7059
37.3983
31.2452
33.4037
33.1704
35.6324
38.1443
26.4657
17.9164
34.0291
25.9982
26.7237
40.0243
28.6478
42.1283
33.337
33.9238
27.7337
46.4917
31.0601
21.2768
21.4841
28.0357
24.9473
34.9049
35.1259
31.6768
22.5157
29.3258
25.0523
25.7365
26.9124
28.6307
18.5587
33.8486
25.0756
48.9613
34.7579
33.9762
19.49
25.8277
30.9987
34.5581
27.6721
30.9659
22.0754
30.1019
29.8418
30.0764
28.8272
42.7878
29.3735
27.6378
26.4326
25.3717
39.3124
40.0559
40.3024
26.617
37.4947
55.1209
29.711
20.2724
34.2633
33.2777
34.5664
36.6442
32.0952
18.5194
34.7167
29.9024
29.7291
28.2419
33.6353
27.3613
26.8752
23.6183
46.9607
32.2964
31.3577
41.5957
41.5131
41.8568
28.6503
31.6218
28.6664
40.3084
32.2632
46.2977
27.7272
21.9987
29.8121
37.5795
30.0661
31.6854
35.6298
30.2594
19.2123
45.0645
29.2082
31.3719
30.5409
33.9794
32.3521
27.6291
31.2106
32.6896
33.2822
31.3646
32.1713
30.9464
31.4784
30.8262
23.3477
30.7373
31.6313
32.8169
29.3153
31.5863
32.349
41.1931
30.3817
27.3925
28.9936
24.1548
30.2497
30.1604
29.2907
28.2563
31.9484
27.482
31.2164
29.4126
18.7467
49.0108
29.2461
27.2467
29.0339
29.7777
29.6153
29.2861
31.3211
26.0455
28.6668
37.6612
34.7279
27.4726
26.5878
28.925
37.8467
28.4913
23.6467
33.0142
27.9718
31.0743
31.1935
30.2953
25.4573
28.5104
27.1213
26.2694
27.4185
20.5292
26.5563
34.5806
33.2441
26.9823
32.0178
28.243
27.0606
30.9367
52.8808
32.2533
26.9056
26.8204
30.803
27.7319
28.6189
33.7055
28.0207
31.805
27.6998
25.7637
35.1882
32.2885
28.2074
23.5343
25.2924
30.295
27.4626
21.5543
29.0001
32.674
28.6518
26.5415
28.5956
29.1373
52.9978
51.9585
33.0628
40.3539
27.1866
27.8643
30.2573
29.0476
31.719
30.1525
30.167
29.4809
39.2469
29.7106
31.7246
27.6033
30.1816
23.5128
24.6008
32.4233
31.332
48.1622
37.0362
23.8643
22.1692
32.7074
28.8904
25.3304
32.2007
29.0905
33.9911
28.8035
28.7031
33.3306
35.4393
34.5583
52.1426
38.4014
29.0846
40.9652
35.1768
31.2853
35.6529
34.2146
29.2566
33.2703
32.7169
29.9676
37.7138
28.8119
23.2845
22.3568
30.5896
21.7763
35.9208
37.7696
28.6109
53.4949
30.6103
24.4815
23.0458
33.5217
27.7789
36.6482
42.756
35.2475
31.1877
32.1685
45.3144
33.1626
39.4261
36.748
27.6213
34.6455
31.8148
43.5908
34.3799
30.8739
38.0875
44.8132
43.1213
40.7848
32.1529
28.6598
32.4534
50.8725
23.0255
27.081
21.1095
38.3099
41.4825
22.5106
21.3704
32.0472
30.2788
31.5375
33.1025
24.7494
34.9427
38.5558
35.7371
39.2848
30.847
39.9983
41.7559
25.906
43.0142
27.7942
34.1505
30.2935
50.2876
52.4315
46.417
39.0229
28.1732
35.9428
41.5857
28.8743
35.3459
29.8561
37.0063
35.0843
29.9916
31.9131
39.389
41.6564
35.8865
23.2939
20.8757
35.6009
26.8844
19.7725
22.9797
38.7369
32.3322
41.2141
35.9568
24.5528
39.835
23.1695
35.8718
45.462
31.3747
35.8684
38.3887
28.8395
25.0555
29.6555
26.7347
53.4162
40.4353
48.6868
48.1822
27.7755
38.7716
31.5438
36.9207
37.5807
39.5287
30.0572
35.9492
32.3131
37.0183
27.4923
29.3205
34.6675
37.546
27.3407
38.2613
42.3219
20.7244
24.727
20.028
36.4622
26.9153
36.6355
29.0974
27.834
27.2016
37.2779
23.2597
36.75
52.3039
23.0339
35.7124
21.5321
54.8678
35.7905
27.589
31.7439
26.085
36.3928
47.1619
30.9987
28.3106
35.2383
35.2968
36.2627
35.5722
33.8988
32.4608
37.6189
22.9936
32.7801
34.3389
34.2194
25.6182
26.2943
31.3787
34.8628
28.0543
34.4779
39.7916
33.7493
29.6396
34.2102
53.6105
27.8536
33.753
33.5631
29.887
32.9929
30.9947
31.4914
27.7742
21.7645
20.7321
33.3283
49.1742
25.2688
26.4786
27.5113
25.1517
32.9871
34.2437
32.4664
30.896
26.8712
22.9659
32.9596
32.747
21.492
25.9195
32.459
31.7977
30.7159
44.5995
28.5016
36.0255
32.1025
25.2913
39.5444
31.9845
31.374
27.1394
29.0947
31.5969
35.8412
24.5917
19.3138
31.571
30.8619
30.1029
30.6516
31.0777
29.1227
31.0361
54.4842
30.4895
24.532
42.4458
34.2597
30.4609
30.6918
27.149
32.1476
29.0334
30.0847
30.6042
27.1155
25.4418
30.2311
30.2973
29.5113
30.244
29.7216
25.7667
29.9773
27.986
25.4228
29.3745
29.8777
53.9621
27.9679
36.6283
29.8817
29.6271
24.2538
29.6376
29.5559
29.1005
22.8182
29.4094
29.616
35.8449
29.5557
20.1162
27.816
28.8125
27.1485
29.2313
24.0806
26.4341
29.3657
29.1072
22.4894
29.2955
26.6195
28.5556
29.0234
28.5639
28.9266
46.4987
59.4287
39.4906
28.3367
28.7779
31.7102
24.8029
28.9605
28.6747
28.984
24.7368
28.1281
23.2193
28.5987
28.7823
28.1311
28.5211
28.3706
39.4225
32.9547
32.2828
27.9615
28.4082
18.1013
28.6346
28.3235
27.6865
28.5935
27.7828
28.2602
27.1214
24.3652
28.1977
29.5984
27.6854
28.1236
28.3788
25.6481
28.0514
27.1944
28.0759
27.574
31.1386
28.0652
27.0923
28.2009
27.8956
26.8177
27.4549
26.6721
27.8721
24.0414
27.8594
27.9254
27.3485
27.6852
26.407
26.076
27.6898
27.2161
45.9692
39.3109
26.2791
27.5139
26.466
26.0406
49.3139
27.638
27.086
36.2413
27.3921
26.3325
25.6534
27.3231
24.1141
25.7122
27.6058
26.9172
25.8025
30.1092
27.2152
26.1172
27.3383
19.1457
26.785
25.6085
32.1174
27.3394
21.5742
25.9292
25.9517
25.2701
27.0368
26.9913
25.2521
24.15
61.794
27.6381
25.4251
26.6034
23.1169
26.3165
27.1037
25.1039
26.8475
25.4129
26.4217
25.0677
27.0794
25.0713
26.8775
47.7174
25.6132
26.661
25.2509
24.8561
26.7759
26.2047
38.5999
27.0787
25.4594
25.3049
24.7654
26.4156
26.5689
26.0313
24.7168
26.8567
25.0852
18.1715
25.1299
24.8292
29.0889
26.7307
28.1906
29.0728
37.2125
26.3864
24.6741
24.7859
25.8157
31.4609
26.4846
24.8639
26.425
24.4491
24.4803
26.1618
23.5058
25.5679
25.1911
31.1405
24.3272
34.7767
43.358
24.6782
26.4677
24.3156
25.7666
24.7991
25.9479
25.2903
40.5531
24.2
24.4301
26.5835
24.4493
24.1306
25.9222
26.0506
28.9517
25.0501
24.0668
63.2279
25.9202
24.2645
18.5859
26.3034
23.9309
27.6542
20.8858
25.7174
25.182
24.8058
24.1601
25.7862
25.5377
49.7271
24.0047
23.7796
24.4912
25.9827
26.1919
25.1863
25.4241
27.8283
24.5052
24.0984
27.5881
23.8355
42.7614
23.6844
25.9846
25.7922
25.1857
24.0608
30.4664
27.5092
24.21
23.6437
34.5329
40.2735
28.508
27.112
24.5721
23.5869
24.1291
35.3324
25.6792
26.0071
24.012
25.0788
24.061
23.922
32.2217
23.4559
31.0604
23.5997
30.5949
61.1012
25.8736
28.5759
48.3189
25.7665
24.7467
23.6236
25.8906
23.3063
23.5969
25.5778
25.8512
42.5507
30.1069
24.422
25.451
24.4405
25.878
23.3328
34.271
23.2067
17.1451
20.6129
23.5977
24.2955
24.476
31.1974
24.6118
27.3572
34.8293
23.9871
25.1641
23.0735
23.1363
27.1865
23.6037
27.0342
31.8153
24.9727
23.6548
22.8132
24.7318
39.4313
23.1017
58.5137
23.6271
26.3932
27.529
47.244
25.773
32.69
27.0976
29.7942
42.6847
25.3842
24.3456
34.5168
30.6395
37.4844
34.1215
22.6631
23.1544
23.1633
31.1591
23.7563
24.3449
30.586
17.911
25.3628
26.8777
22.5983
23.1018
23.9837
33.505
22.7106
23.8615
29.0456
21.2301
26.6034
22.6439
27.9534
25.2756
33.0017
27.2623
34.9064
23.1938
24.6639
27.8979
22.5546
24.5624
28.0964
22.3302
22.9083
43.7467
29.1604
24.2742
29.6857
39.3812
26.2511
25.3354
23.3691
54.1127
43.8496
28.9726
22.496
26.3475
22.0253
26.2599
33.055
22.0811
29.4849
34.5812
29.6229
33.339
18.3132
23.9798
32.7817
26.662
23.809
31.1731
28.3887
36.1425
22.41
21.7471
24.9075
21.5899
26.3634
32.392
22.9275
28.4137
22.9444
32.0442
27.505
24.5198
24.2568
33.4217
22.3037
29.2066
28.9614
27.657
37.5797
21.5474
33.9928
21.0595
26.6758
40.9279
30.0287
32.944
25.9176
32.159
21.9259
22.6281
32.7173
45.7764
31.384
49.2323
24.5794
21.4691
20.5616
34.577
28.5679
31.8541
24.6149
16.8844
31.323
27.3876
27.0495
23.2313
23.5124
31.3699
35.1291
21.4236
29.5749
29.9023
31.6275
23.0157
31.334
20.443
24.3006
28.2431
29.1609
20.4841
27.6974
36.3316
31.8236
24.9026
23.921
28.975
27.5523
32.356
27.2429
21.6851
40.8989
29.0074
29.8449
26.9779
20.4167
29.8151
32.3424
35.2725
19.7541
27.3996
24.157
32.691
24.6384
26.6622
22.6794
27.4529
39.0299
26.1844
31.495
27.6083
27.9561
20.0473
57.4659
31.6626
16.5816
42.2583
22.1235
28.2916
32.49
22.6318
29.0779
41.9121
29.0938
36.4782
19.9034
27.9138
24.8259
28.1914
24.7623
28.0997
32.4498
28.0384
30.5927
25.1685
21.4393
25.9407
23.3046
30.3468
27.7322
33.598
19.4676
37.9506
25.304
34.029
23.3399
26.346
30.1858
37.4981
23.9165
26.662
23.993
32.8271
30.2512
30.9544
24.9408
19.7492
34.9686
25.2681
29.4216
18.1924
19.9832
25.576
22.6615
18.3664
24.3181
36.7337
27.4455
25.7279
23.2053
28.7663
23.883
30.1039
34.0871
26.0509
30.3384
25.2721
25.5968
22.437
27.4287
22.4991
28.3644
33.7661
28.9869
23.3667
24.2206
60.229
46.8956
36.5411
33.1729
43.25
29.915
27.7083
41.1975
19.4638
31.6506
36.7091
22.3982
24.8415
29.078
35.3959
24.7108
21.7766
26.7381
21.4088
29.7701
31.4395
23.1726
35.4811
24.0817
18.9763
18.605
23.4424
23.9823
22.1671
29.573
26.9562
27.2927
26.067
32.0404
32.1022
30.2843
24.4659
29.3111
23.1607
28.5261
22.1969
32.1504
33.233
25.3924
32.6231
27.0793
37.8698
39.4222
29.9684
19.8237
21.3224
26.8734
49.865
37.4254
28.2467
21.7222
29.6939
24.9083
41.4566
55.3958
31.2551
23.8545
34.4102
36.3006
25.6193
25.3349
29.786
39.7362
27.3537
29.5643
23.3648
28.1346
18.7738
30.4848
25.1961
28.2466
24.5028
21.3859
23.6633
33.2637
27.8235
28.7663
29.4814
27.5221
33.168
29.311
31.1729
26.7515
30.5499
30.9695
20.6205
30.7013
27.7474
28.3635
33.1292
34.2501
30.5034
25.7253
36.5105
30.4711
29.5112
30.8966
22.9784
25.6912
36.5173
27.8437
30.9674
37.6
29.1389
31.7641
21.8407
34.0152
30.3622
30.2925
30.1869
28.0786
38.4141
29.3069
32.2642
36.4661
33.1351
29.5777
47.7722
32.2113
27.5956
32.5944
32.762
32.6832
22.0013
31.5677
29.2736
33.0645
23.5287
51.0563
28.4883
32.4156
30.3925
32.81
27.127
22.2472
26.1962
33.4553
29.049
29.8091
32.6047
28.9163
28.5566
28.8587
32.5251
33.3231
31.8887
26.9214
29.7516
31.6387
23.604
32.5802
36.9518
33.1867
22.4129
30.2659
30.3777
34.0429
31.919
31.4805
28.6235
37.7266
34.6308
35.3628
32.677
27.1732
34.3383
31.6092
30.9316
36.2441
30.1066
31.7596
29.8591
35.3352
33.9642
31.8456
27.3739
39.8979
37.202
32.9598
35.5159
30.5387
32.8921
29.7105
23.7138
34.1668
45.2139
31.1823
24.0846
33.5761
31.1873
32.1868
21.7547
34.445
26.8348
38.0052
36.2512
23.0526
29.6571
29.602
34.0013
33.4333
25.4962
37.7355
27.6236
32.1651
29.2695
26.9833
32.3003
32.4064
37.0853
32.7135
27.1852
35.4777
29.1796
36.5289
36.8247
40.7095
39.5743
34.1604
35.8118
32.5058
33.3448
33.3742
33.255
31.0782
33.7831
27.753
36.7066
36.8056
33.6404
31.3654
40.8898
38.0841
32.0849
33.1868
39.5785
46.2017
35.4913
28.9269
34.9224
39.9511
37.8331
24.8204
29.5408
38.2394
41.5709
34.8799
35.2775
33.6958
23.6428
41.5489
33.4231
37.7366
35.014
37.8595
38.1618
26.5005
29.2977
33.9348
37.4031
35.4529
28.2446
38.0973
39.6839
43.0611
43.719
34.1996
36.0815
40.2264
26.2174
30.1155
32.8597
28.147
36.5263
30.1356
31.4805
35.734
36.4987
21.7578
30.5192
29.159
44.7178
44.5601
40.0763
41.7702
41.2797
30.5603
37.5673
38.2358
30.0465
30.4919
37.2107
38.2132
34.1528
44.5901
34.088
45.5238
37.6625
41.632
42.1664
32.4515
30.4264
38.8745
39.022
41.2619
23.7717
35.6861
32.3903
47.2521
43.9626
31.0455
32.8968
43.041
39.1835
42.0748
40.5282
39.91
42.2949
39.4977
36.2766
49.8478
29.2176
33.3087
32.2231
45.1793
41.7302
42.8362
40.245
40.5644
40.1988
29.8495
35.984
48.2746
26.9091
32.5391
26.3548
25.6286
28.65
37.7298
30.096
31.4875
33.9417
31.3908
43.6811
41.22
23.2519
50.9749
36.4281
26.9446
41.9371
33.2687
44.1951
44.789
42.314
24.73
40.1414
29.5505
40.9167
41.9485
36.9883
33.6166
43.6437
38.1046
35.2106
33.1016
45.4531
30.4485
28.9158
52.3028
37.5224
34.1586
52.0552
25.8516
45.1659
39.4834
28.8544
46.9334
29.6004
41.4202
44.445
53.0462
34.2054
41.9674
39.8915
46.1404
30.6756
36.6857
34.4767
43.4317
46.8003
45.2026
38.4579
23.642
28.2328
28.9244
24.4539
42.099
36.159
34.6596
22.2309
43.3476
46.028
32.5725
43.627
51.5815
38.6587
25.1237
35.3192
43.6502
50.2422
26.8932
38.9409
34.6694
47.4015
35.3515
45.5007
35.2584
25.6002
33.9833
30.2937
45.2716
43.5404
39.1343
47.3425
35.6709
28.0107
40.4701
43.183
49.7232
47.6591
38.7754
35.7496
43.1958
44.1905
37.6244
32.4365
48.1004
53.2973
38.9325
36.0879
42.5967
25.9688
45.1354
35.7583
39.6921
42.396
41.3886
36.0276
46.3285
33.6159
46.6102
39.8939
27.4151
22.8228
47.5827
23.8201
51.3156
30.4267
36.2112
26.6576
41.2481
37.2774
33.8318
46.968
47.1425
29.7295
25.3911
35.9238
43.9022
47.4705
41.3195
26.0258
29.3319
45.7571
29.7789
36.0743
39.2134
42.1022
47.0562
32.4934
33.1299
35.9498
40.5991
40.8074
46.0894
35.9991
27.5603
48.0776
30.0849
43.9004
23.0154
48.936
40.7154
49.3652
36.273
27.0995
51.7511
42.5405
49.5203
44.9802
28.8964
37.5824
35.7322
35.1031
29.3701
48.9868
45.6864
37.9653
23.7815
29.241
22.8263
42.3386
30.0518
43.3555
22.9277
35.7407
35.2936
48.2012
25.4793
33.151
32.163
40.9398
30.6847
49.3609
29.4277
46.2291
36.3154
35.6404
29.5554
48.5089
44.3444
46.4629
27.3934
40.8011
42.888
34.892
35.8519
21.4092
45.014
49.0895
27.6543
39.0196
41.3087
39.0961
48.0788
34.4021
35.4701
37.3942
44.1721
42.2054
41.234
41.0673
27.2532
27.9204
20.9477
35.3871
39.5997
47.9141
28.8247
20.8245
47.7484
32.8913
28.4555
23.4488
28.6919
25.3631
31.1961
34.7764
30.7253
41.3607
43.3097
41.2764
27.6357
41.0736
36.5376
39.4097
28.5522
47.4698
40.8318
34.8411
38.5535
39.6791
31.0295
48.2728
40.5448
22.0061
48.971
27.057
39.6548
46.6165
30.6853
34.4872
45.6695
34.5469
34.7338
46.77
24.3509
40.5842
33.8743
41.5926
25.0672
18.182
27.5525
18.5736
25.6128
34.3586
28.0429
42.3998
23.8751
40.2158
35.0807
33.9485
25.7465
42.4215
40.2746
41.5449
32.6657
32.9655
40.1586
40.9034
29.3468
29.96
32.5965
33.0008
48.2804
42.495
48.1556
35.0806
27.0344
32.6059
42.9784
31.2579
25.1439
41.2611
27.2799
41.6501
42.2029
41.1445
31.6548
20.484
25.752
26.6059
17.1604
26.1471
37.0947
32.3764
31.2828
23.2925
21.559
25.0581
43.9442
26.0289
41.1933
29.6768
40.5017
47.4391
31.334
32.156
34.821
46.1311
26.2059
37.7039
30.0125
27.0033
44.3335
38.5945
25.6565
32.1655
40.1028
37.2293
39.3641
15.8526
37.8884
36.7624
45.1184
43.981
20.8084
38.2819
32.8725
34.2271
25.8822
35.7644
25.0382
28.5083
16.9289
24.707
22.5962
42.9305
33.8741
25.3153
32.0009
42.0701
38.8367
39.0612
32.1798
25.3879
31.3834
26.9033
34.4268
42.0286
40.2612
25.7937
31.1375
38.6085
31.4792
36.6098
32.1463
38.0584
29.0784
34.0358
30.0743
39.1653
16.1262
19.9326
27.668
39.4769
19.5323
41.5365
31.2459
36.2021
32.6442
38.7704
31.5602
28.9277
38.2364
37.0272
29.8864
22.4962
23.7797
39.6841
31.0108
23.2742
30.6523
28.4716
33.7481
38.8536
24.367
36.524
38.311
25.4754
26.7402
39.1782
15.2844
29.9947
23.9606
30.1051
29.1563
28.7377
21.1408
30.7168
38.7157
28.1592
36.232
19.2398
32.9256
30.6086
39.7262
25.2402
28.2588
32.306
29.0704
25.3401
30.7965
39.6067
38.9849
32.5734
21.3679
19.3333
38.9465
28.7454
29.2277
22.3025
38.7085
31.8984
24.8825
16.8038
29.6155
16.4114
38.0382
30.5891
29.0756
29.6698
23.4263
22.8974
23.3462
32.1507
42.8784
28.3811
29.4056
25.9804
25.2521
32.6705
38.8159
22.2543
27.6333
31.2681
28.2356
23.5085
28.3229
26.8997
28.9894
35.0732
21.4288
30.5508
33.9767
25.191
18.4201
18.2349
38.0322
18.019
23.9431
22.0006
27.2634
40.8636
25.5992
24.5868
21.8982
26.0926
27.4611
38.8763
35.3157
31.0569
23.0437
26.1014
27.7662
26.6322
31.2902
21.9202
25.8906
37.248
24.571
29.9703
21.8066
28.609
42.4074
20.2335
26.1165
22.8121
18.8853
17.8782
37.3045
33.4976
21.8021
26.6045
30.6054
26.3022
26.2748
31.2832
36.3304
24.3723
33.5046
27.2961
23.07
27.4897
26.3026
22.7564
27.3517
44.8688
36.6741
24.716
25.374
36.0155
26.4231
32.1493
21.8384
22.255
22.2143
21.8664
30.6428
36.5619
19.9001
20.0527
35.7569
18.8012
27.5572
27.2046
20.2932
24.4411
37.0251
25.8289
24.9651
29.1797
25.3741
42.0572
29.973
26.7447
34.7399
22.9414
22.0749
23.0107
26.2559
24.8615
22.9923
22.0875
34.1628
19.4694
44.0382
34.5434
22.6295
29.2847
42.1357
33.8021
32.123
25.6716
23.5098
32.8101
26.4618
24.5111
37.3626
23.4848
23.7055
22.3902
26.8657
40.9958
33.2196
27.8006
25.1525
31.6816
21.1298
24.8392
34.2096
20.7199
35.3621
42.7709
32.2693
27.5752
34.4493
25.7247
46.1269
32.5948
25.3553
39.8105
28.0978
23.6875
22.0739
30.7186
34.7683
32.6462
42.1879
33.6562
24.0299
30.7985
27.0462
34.0267
43.9034
31.9716
32.2726
43.9478
26.1385
38.9797
26.5505
24.3147
29.9597
33.6425
36.9707
31.196
41.7112
34.3053
31.9915
25.6927
26.2898
29.5093
23.2588
45.3164
32.1861
34.0923
19.4243
29.5872
40.1587
33.2035
23.7222
25.1254
28.6631
23.5489
28.7654
34.5433
30.0462
24.2959
23.1288
34.0762
28.3864
22.5139
29.9241
31.8732
32.8497
31.8449
25.2136
27.9331
27.405
26.7167
24.6048
22.7272
30.1634
18.5056
22.7722
30.7336
29.7586
21.9714
27.1812
27.9553
24.3698
31.5464
30.6304
23.2021
29.7635
22.5903
24.4175
27.0771
19.8352
31.4783
24.1413
27.2017
22.0216
30.0135
30.3625
23.494
26.9694
22.6157
25.1461
19.6111
22.7118
28.5396
26.8885
26.1189
23.5382
27.0836
23.0305
SCALARS friction float 1
LOOKUP_TABLE default
7.52311
7.56046
8.33419
8.37217
7.39001
7.7987
8.39469
7.64119
7.65913
7.27622
7.56293
8.39784
7.04572
7.68056
6.78033
6.6941
7.17905
8.43772
7.07609
8.13909
8.03132
6.33376
7.60682
8.58635
6.64345
8.30118
8.18207
7.99969
7.28951
7.86522
8.40168
6.4432
9.1734
6.91256
8.55724
7.01942
7.84316
6.27967
5.93596
5.65802
9.65365
7.74037
7.08428
8.85976
9.74257
6.14709
8.16104
8.09171
10.0156
9.9968
10.9708
9.49506
10.9817
5.74402
8.71085
10.3595
7.35105
6.6545
8.71022
10.9952
10.4854
9.94764
6.24988
9.82365
9.47644
8.60669
9.50783
9.49368
11.0816
5.6344
10.5577
7.84866
10.1838
10.3324
10.3641
6.80926
11.3066
11.7289
9.4856
8.77261
12.5163
11.584
5.81821
11.7211
9.41106
10.8454
10.4936
9.11049
8.48327
9.8111
8.91837
10.5567
12.0322
6.74131
5.56326
8.38289
11.449
9.28071
10.9026
9.30369
9.60019
7.57748
8.90331
12.3085
7.47263
7.28418
12.4467
7.06228
7.68279
5.76109
11.796
12.3588
8.28251
9.59968
7.5203
8.42248
8.54045
12.7903
8.93889
9.2398
6.2367
11.7834
7.83611
5.75152
8.37979
12.1518
10.5067