# vtk DataFile Version 3.0
File generated from DClib
ASCII

DATASET UNSTRUCTURED_GRID
POINTS 2394 float
75 0 0 
74.0132 0 0 
75 1 0 
74.0132 1 0 
73.0263 0 0 
75 2 0 
72.9355 1.08748 0 
73.9223 2.08748 0 
72.0395 0 0 
75 3 0 
72.8446 2.17496 0 
71.9486 1.08748 0 
73.9223 3.08748 0 
71.0526 0 0 
75 4 0 
72.8838 3.58748 0 
71.5238 2.50694 0 
70.6278 1.41947 0 
73.9615 4.5 0 
70.0658 0 0 
75 5 0 
71.563 3.91947 0 
72.9229 5 0 
69.641 1.41947 0 
70.203 2.83893 0 
73.9615 5.5 0 
69.0789 0 0 
75 6 0 
69.1476 2.44434 0 
72.9229 6 0 
71.6239 5.5 0 
70.2639 4.41947 0 
68.5855 1.02487 0 
73.9615 6.5 0 
68.0921 0 0 
75 7 0 
68.0921 2.04975 0 
72.9229 7 0 
71.6239 6.5 0 
68.6542 3.74338 0 
67.5987 1.02487 0 
73.9615 7.5 0 
70.3248 6 0 
67.1053 0 0 
75 8 0 
67.5987 3.34878 0 
67.1053 2.04975 0 
68.7151 5.32391 0 
73.0785 8.1 0 
66.6118 1.02487 0 
74.1171 8.6 0 
66.1184 0 0 
75 9 0 
66.6118 3.34878 0 
66.1184 2.04975 0 
71.6239 8.5 0 
67.1053 4.64782 0 
69.1755 7.15213 0 
70.3248 8 0 
73.2341 9.2 0 
65.625 1.02487 0 
74.1171 9.6 0 
67.5657 6.47604 0 
65.1316 0 0 
75 10 0 
65.1316 2.04975 0 
71.7795 9.6 0 
73.0785 10.1 0 
64.6382 1.02487 0 
65.1137 3.65591 0 
73.9615 10.5 0 
65.6071 4.95495 0 
68.0262 8.30425 0 
69.1755 9.15213 0 
64.1447 0 0 
66.0569 6.38442 0 
75 11 0 
71.6239 10.5 0 
70.3248 10 0 
64.1447 2.04975 0 
72.9229 11 0 
63.6513 1.02487 0 
64.1268 3.65591 0 
73.9615 11.5 0 
66.5173 8.21264 0 
63.1579 0 0 
75 12 0 
63.1579 2.04975 0 
64.1089 5.26208 0 
73.0785 12.1 0 
67.2259 9.58662 0 
68.3752 10.4345 0 
62.6645 1.02487 0 
64.5587 6.69155 0 
63.14 3.65591 0 
74.1171 12.6 0 
62.1711 0 0 
65.0085 8.12102 0 
70.3248 12 0 
71.6239 12.5 0 
62.1711 2.04975 0 
75 13 0 
65.717 9.495 0 
68.9358 11.8258 0 
62.6466 4.95495 0 
73.2341 13.2 0 
61.6776 1.02487 0 
63.0969 6.3615 0 
74.1171 13.6 0 
61.6776 3.34878 0 
61.1842 0 0 
66.4255 10.869 0 
63.5467 7.79097 0 
61.1842 2.04975 0 
71.7795 13.6 0 
75 14 0 
73.0785 14.1 0 
60.6908 1.02487 0 
63.9359 9.23812 0 
73.9615 14.5 0 
61.1842 4.64782 0 
66.9861 12.2603 0 
61.6346 6.05437 0 
60.6908 3.34878 0 
70.3248 14 0 
60.1974 0 0 
64.6444 10.6121 0 
71.6239 14.5 0 
62.085 7.46091 0 
60.1974 2.04975 0 
75 15 0 
68.9358 13.8258 0 
72.9229 15 0 
59.7039 1.02487 0 
65.5009 12.0501 0 
62.4741 8.90807 0 
73.9615 15.5 0 
67.5467 13.6516 0 
59.2105 0 0 
60.2109 5.66149 0 
62.8633 10.3552 0 
60.6613 7.06804 0 
75 16 0 
59.1118 1.8996 0 
66.0615 13.4414 0 
69.4963 15.2171 0 
73.0785 16.1 0 
63.7198 11.7932 0 
59.2712 4.40082 0 
61.0276 8.51671 0 
58.6184 0.874731 0 
58.7778 3.10178 0 
68.1073 15.0429 0 
74.1171 16.6 0 
70.3248 16 0 
58.2237 0 0 
71.6239 16.5 0 
64.5763 13.2312 0 
61.4167 9.96386 0 
75 17 0 
66.6221 14.8327 0 
58.0263 1.74946 0 
59.2376 6.67516 0 
62.2346 11.583 0 
73.2341 17.2 0 
57.6316 0.874731 0 
59.6039 8.12383 0 
57.6923 2.95164 0 
58.2979 5.41449 0 
68.6678 16.4342 0 
74.1171 17.6 0 
65.1369 14.6226 0 
63.0911 13.0211 0 
57.2368 0 0 
59.9702 9.5725 0 
71.7795 17.6 0 
57.1382 1.8996 0 
75 18 0 
67.1826 16.2241 0 
69.4963 17.2171 0 
60.8215 11.2716 0 
57.3582 4.15382 0 
73.0785 18.1 0 
56.7434 1.02487 0 
63.6517 14.4124 0 
56.8041 3.10178 0 
57.8154 6.75019 0 
58.376 8.14151 0 
65.6974 16.0139 0 
73.9615 18.5 0 
61.6059 12.8109 0 
70.3248 18 0 
56.25 0 0 
71.6239 18.5 0 
56.25 2.04975 0 
58.7423 9.59018 0 
56.8757 5.48952 0 
75 19 0 
59.3749 10.8802 0 
67.7432 17.6154 0 
72.9229 19 0 
64.2122 15.8037 0 
62.1665 14.2022 0 
55.7566 1.02487 0 
60.1928 12.4994 0 
66.258 17.4052 0 
68.5717 18.3983 0 
73.9615 19.5 0 
55.7563 3.4912 0 
55.2632 0 0 
56.3932 6.82522 0 
56.9538 8.21654 0 
62.727 15.5935 0 
55.2022 2.43916 0 
57.5143 9.60785 0 
75 20 0 
64.7728 17.195 0 
60.6813 13.992 0 
58.147 10.8979 0 
73.0785 20.1 0 
58.7796 12.188 0 
55.3905 5.27933 0 
54.7088 1.41428 0 
66.8186 18.7965 0 
70.3248 20 0 
74.1171 20.6 0 
63.2876 16.9848 0 
61.2418 15.3833 0 
69.1323 19.7896 0 
54.2763 0 0 
71.6239 20.5 0 
59.2681 13.6806 0 
65.3334 18.5863 0 
75 21 0 
54.1544 2.82857 0 
55.4686 8.00635 0 
54.908 6.61503 0 
56.0291 9.39767 0 
73.2341 21.2 0 
53.7219 1.41428 0 
56.5897 10.789 0 
61.8024 16.7746 0 
57.2224 12.079 0 
63.8482 18.3761 0 
59.7566 15.1731 0 
67.3791 20.1878 0 
74.1171 21.6 0 
53.7886 4.61671 0 
53.2895 0 0 
71.7795 21.6 0 
57.7829 13.4704 0 
53.2285 2.43916 0 
65.8939 19.9776 0 
75 22 0 
62.363 18.1659 0 
60.3172 16.5644 0 
73.0785 22.1 0 
52.7961 1.02487 0 
53.9834 7.79616 0 
54.5439 9.18748 0 
64.4087 19.7674 0 
58.2714 14.9629 0 
70.3248 22 0 
53.4228 6.40485 0 
73.9615 22.5 0 
55.1045 10.5788 0 
69.1323 21.7896 0 
52.7351 3.7382 0 
52.3026 0 0 
67.9397 21.5791 0 
55.6651 11.9701 0 
71.6239 22.5 0 
52.3026 2.04975 0 
60.8778 17.9557 0 
62.9235 19.5573 0 
58.832 16.3542 0 
75 23 0 
66.4545 21.3689 0 
56.2257 13.3614 0 
72.9229 23 0 
51.8092 1.02487 0 
52.3693 5.52633 0 
64.9693 21.1588 0 
51.8092 3.34878 0 
56.7862 14.7527 0 
73.9615 23.5 0 
61.4383 19.3471 0 
59.3926 17.7456 0 
51.4145 1.8996 0 
51.3158 0 0 
53.0587 8.97729 0 
52.4982 7.58597 0 
53.6193 10.3686 0 
71.2128 23.5672 0 
63.4841 20.9486 0 
54.1799 11.7599 0 
57.3468 16.1441 0 
75 24 0 
50.9211 0.874731 0 
51.3158 4.64782 0 
54.7405 13.1512 0 
72.5118 24.0672 0 
69.5776 23.6331 0 
50.9211 3.19864 0 
68.385 23.4226 0 
59.9531 19.1369 0 
61.9989 20.7384 0 
55.301 14.5426 0 
57.9074 17.5354 0 
51.4447 6.70746 0 
67.1321 23.2061 0 
50.5263 1.74946 0 
73.5504 24.5672 0 
50.3289 0 0 
65.6469 22.9959 0 
55.8616 15.9339 0 
75 25 0 
51.5735 8.7671 0 
52.1341 10.1584 0 
49.9342 0.874731 0 
52.6947 11.5497 0 
60.5137 20.5282 0 
58.4679 18.9267 0 
72.1008 25.1344 0 
53.2553 12.941 0 
49.8355 3.34878 0 
56.4222 17.3252 0 
53.8158 14.3324 0 
70.4655 25.2003 0 
73.5504 25.5672 0 
49.4408 1.8996 0 
49.3421 0 0 
63.815 23.2124 0 
59.0285 20.318 0 
49.9595 6.49727 0 
54.3764 15.7237 0 
61.0743 21.9195 0 
56.9827 18.7165 0 
75 26 0 
68.8303 25.2661 0 
49.3989 5.10595 0 
67.5774 25.0496 0 
48.8487 1.02487 0 
62.3298 23.0022 0 
50.6489 9.94823 0 
66.3246 24.8331 0 
50.0883 8.55691 0 
51.2095 11.3395 0 
54.937 17.115 0 
51.7701 12.7309 0 
72.4347 26.4726 0 
59.5891 21.7093 0 
57.5433 20.1078 0 
48.3553 0 0 
52.3306 14.1222 0 
48.3553 2.04975 0 
70.9797 26.4993 0 
55.4975 18.5063 0 
73.8843 26.9053 0 
75 27 0 
52.8912 15.5135 0 
47.8618 1.02487 0 
69.3444 26.5651 0 
64.4926 25.0496 0 
58.1039 21.4991 0 
47.9186 3.80692 0 
53.4518 16.9048 0 
68.3162 26.5651 0 
60.1497 23.1006 0 
56.0581 19.8976 0 
67.0633 26.3486 0 
49.1637 9.73804 0 
49.7243 11.1294 0 
47.3684 0 0 
48.6031 8.34672 0 
50.2849 12.5207 0 
47.3684 2.04975 0 
61.4051 24.1834 0 
66.035 26.3486 0 
48.0426 6.9554 0 
54.0123 18.2961 0 
50.8454 13.912 0 
72.7686 27.8107 0 
73.8843 27.9053 0 
75 28 0 
47.482 5.56409 0 
71.3136 27.8374 0 
62.6606 25.2661 0 
58.6645 22.8904 0 
51.406 15.3033 0 
56.6187 21.2889 0 
46.875 1.02487 0 
46.9318 3.80692 0 
69.8586 27.8642 0 
54.5729 19.6874 0 
51.9666 16.6946 0 
68.8303 27.8642 0 
46.3816 0 0 
64.203 26.5651 0 
46.3816 2.04975 0 
67.802 27.8642 0 
57.1793 22.6803 0 
52.5271 18.0859 0 
48.2391 10.9192 0 
59.6464 24.5 0 
47.6785 9.52785 0 
48.7997 12.3105 0 
72.856 28.9053 0 
75 29 0 
73.9717 29 0 
47.1179 8.13653 0 
66.7737 27.8642 0 
49.3602 13.7018 0 
71.8278 28.9053 0 
45.8882 1.02487 0 
60.9019 25.5828 0 
46.5574 6.74521 0 
49.9208 15.0931 0 
63.0719 26.7325 0 
70.3727 28.9321 0 
53.0877 19.4772 0 
65.7455 27.8642 0 
69.3444 28.9321 0 
62.1465 26.5651 0 
50.4814 16.4844 0 
58.1612 24.2899 0 
45.3947 0 0 
45.7749 5.05301 0 
45.3947 2.04975 0 
68.3162 28.9321 0 
54.7594 21.7738 0 
51.4788 18.4418 0 
64.6143 28.0315 0 
67.2879 28.9321 0 
45.2247 3.29583 0 
75 30 0 
73.9717 30 0 
72.9434 30 0 
44.9013 1.02487 0 
71.9152 30 0 
46.7539 10.709 0 
47.3145 12.1003 0 
66.2596 28.9321 0 
46.1933 9.31766 0 
70.8869 30 0 
47.875 13.4916 0 
52.0394 19.8331 0 
59.1432 25.8994 0 
55.3199 23.1651 0 
45.6327 7.92634 0 
69.8586 30 0 
48.4356 14.8829 0 
63.4832 28.1989 0 
65.2313 28.9321 0 
44.4079 0 0 
60.3877 26.8818 0 
53.2742 21.5636 0 
68.8303 30 0 
44.4079 2.04975 0 
62.5578 28.0315 0 
48.9962 16.2742 0 
56.4771 24.5037 0 
44.8502 6.23413 0 
67.802 30 0 
61.6323 27.8642 0 
44.2378 3.29583 0 
49.9936 18.2316 0 
64.1002 29.0994 0 
43.9145 1.02487 0 
66.7737 30 0 
59.3793 26.9231 0 
44.0678 4.54192 0 
50.991 20.1889 0 
60.6239 27.9055 0 
65.7455 30 0 
63.0719 29.0994 0 
57.4591 26.1133 0 
45.8292 11.8901 0 
45.2687 10.4988 0 
46.3898 13.2814 0 
43.4211 0 0 
52.2258 21.9194 0 
44.7081 9.10747 0 
43.4211 2.04975 0 
46.9504 14.6727 0 
62.1465 28.9321 0 
58.4385 27.0222 0 
64.7172 30 0 
44.1475 7.71616 0 
47.511 16.0641 0 
59.6155 27.9468 0 
43.251 3.29583 0 
53.4606 23.65 0 
63.6889 30 0 
42.9276 1.02487 0 
61.1182 28.9321 0 
48.0715 17.4554 0 
43.365 6.02395 0 
54.6178 24.9885 0 
49.069 19.4127 0 
62.6606 30 0 
58.6747 28.0459 0 
50.8222 21.6733 0 
42.4342 0 0 
60.1098 28.9734 0 
55.775 26.3271 0 
42.4342 2.04975 0 
52.057 23.4039 0 
56.7544 27.236 0 
44.344 11.6799 0 
49.6295 20.804 0 
44.9046 13.0712 0 
61.6323 30 0 
43.7834 10.2886 0 
45.4652 14.4625 0 
43.2228 8.89729 0 
57.7339 28.1449 0 
46.0258 15.8539 0 
59.1213 28.9734 0 
41.9408 1.02487 0 
42.6622 7.50598 0 
46.5863 17.2452 0 
60.604 30 0 
55.9067 27.3302 0 
52.3471 24.5393 0 
53.1846 25.3346 0 
47.1469 18.6365 0 
41.7707 4.59487 0 
56.8861 28.2391 0 
41.4474 0 0 
58.1804 29.0725 0 
50.6533 23.1578 0 
41.3487 1.8996 0 
59.6155 30 0 
54.3417 26.6731 0 
55.1468 27.4186 0 
47.7075 20.0278 0 
49.4607 22.2884 0 
57.2873 29.0725 0 
56.0384 28.3333 0 
43.4194 12.861 0 
42.8588 11.4697 0 
43.98 14.2524 0 
40.8553 0.874731 0 
58.627 30 0 
50.9434 24.2932 0 
40.9539 3.34878 0 
42.2982 10.0784 0 
44.5406 15.6437 0 
48.2681 21.4191 0 
41.7376 8.68711 0 
45.1011 17.035 0 
41.068 6.0769 0 
40.4605 0 0 
56.4396 29.1666 0 
55.2785 28.4216 0 
41.177 7.2958 0 
57.7339 30 0 
45.6617 18.4263 0 
40.2632 1.74946 0 
51.2336 25.4286 0 
52.071 26.2239 0 
52.9085 27.0192 0 
46.2223 19.8176 0 
49.2716 23.6764 0 
53.7135 27.7646 0 
55.6371 29.1666 0 
56.8408 30 0 
54.5186 28.51 0 
39.8684 0.874731 0 
[...]
POINT_DATA 2394
SCALARS cohesion float 1
LOOKUP_TABLE default
31.7293
31.6382
28.6807
28.5918
31.6656
28.5854
28.2606
27.9934
31.0077
23.8838
26.2345
28.6365
24.0251
29.8834
31.6723
25.8226
23.1548
28.0477
35.4167
29.4601
30.8153
29.6931
34.8945
27.5836
19.8269
26.876
30.7222
25.2809
23.517
24.9624
28.1059
34.9712
27.905
24.6564
31.9747
22.9076
26.7887
22.5757
25.094
28.2954
27.5422
21.0979
27.0888
32.444
21.2646
21.8762
26.1613
31.6375
21.9429
28.2084
24.2115
32.1522
27.6221
24.3912
24.2381
23.7427
38.3526
23.8239
21.3645
29.8718
29.1846
31.7641
28.0648
33.3788
33.5269
24.7735
32.6429
34.3256
29.3632
26.7195
38.7626
35.7317
22.6897
29.2608
34.6444
28.6437
42.5779
42.1793
38.9764
27.2768
45.8718
30.335
22.8555
45.6115
23.4377
35.6791
43.7131
25.3964
36.2677
43.9074
35.9169
45.0365
31.9917
28.2079
26.2493
43.2671
36.6555
23.1466
45.6821
44.8818
25.9146
43.057
35.2799
47.4937
34.5244
44.5124
32.8037
29.4338
46.2385
23.343
39.242
52.0877
22.9819
28.0726
46.7108
45.7441
46.4975
34.2174
31.6709
42.4846
35.8014
46.3695
29.6125
22.7231
45.881
40.8715
49.8168
42.8419
24.2835
29.7702
39.0784
44.3234
39.833
35.2486
46.6586
28.0706
39.3151
43.1577
43.5626
30.4896
45.3899
27.7701
38.0312
32.8348
42.3254
44.0306
38.6067
49.315
34.8381
24.4335
37.331
22.3125
45.1031
36.3476
42.6512
43.9219
39.0233
39.2319
38.3186
34.063
44.7951
34.7552
31.6546
48.829
34.4675
37.9772
23.0441
22.6699
30.7189
42.2522
32.3718
43.7661
37.7802
45.2919
33.712
34.1597
33.2668
29.4113
44.0046
38.2487
49.9457
33.087
29.5047
36.7449
42.5574
20.7037
30.3459
23.5513
44.5705
27.1427
37.413
30.616
43.9467
28.0741
30.4669
33.0198
29.3613
26.8855
46.0462
35.2279
27.491
44.0187
40.8779
36.7902
38.8948
35.1251
30.5731
28.9543
23.2161
42.7881
29.6937
23.4262
44.0399
23.4994
32.3131
30.564
34.4057
39.4427
45.4185
30.9009
41.6621
28.1145
33.0135
30.4944
33.5965
30.5609
33.2913
43.4944
33.8218
40.2415
32.363
38.5949
29.6466
29.5332
17.1195
22.8984
28.1743
29.9714
29.8661
31.8037
42.5412
34.0158
41.5452
28.1986
42.7024
34.4154
29.1857
26.8434
40.347
30.2369
37.2806
20.7991
33.7529
28.6232
27.6259
34.3765
28.734
33.3978
22.3816
27.7819
33.3586
40.508
29.9422
25.3061
27.3367
39.2307
30.985
21.7418
39.5779
30.8105
40.8517
27.5728
24.9989
26.7861
32.9056
35.0067
26.1396
30.1056
36.1279
25.8372
31.7906
24.1844
27.6672
17.6859
37.2024
25.7508
33.1967
26.2075
26.2505
39.588
26.273
23.441
36.3272
28.1085
27.3961
39.773
35.2139
28.0059
32.3552
26.2104
34.4208
29.2634
28.8802
17.6713
28.0271
33.2694
27.2373
33.4025
24.5743
24.315
27.8043
27.4338
34.3442
38.3266
26.8085
32.7343
35.2789
25.3418
34.3145
31.8495
38.5227
29.2409
33.0946
36.3991
33.2515
19.7612
23.4436
29.9097
36.6037
32.8322
25.2794
37.5975
25.5816
30.8193
23.7716
30.591
22.5353
31.091
32.5619
36.1593
25.3897
33.2833
31.0056
24.1257
34.1136
31.985
26.295
36.7667
21.3354
32.5972
37.6584
22.2136
32.529
35.8362
28.1061
21.7122
38.0897
27.9098
37.2998
36.8588
27.5132
32.1054
39.6333
27.5727
21.3643
23.9965
20.5459
39.7836
22.4037
34.2913
37.253
33.7401
35.3099
34.9188
27.1811
30.9309
21.4732
26.4167
35.2614
25.7484
24.256
27.295
38.4408
35.1803
34.0641
25.6186
41.5349
24.8071
21.7968
25.6393
20.8885
32.2845
24.596
46.4225
33.1261
19.9391
47.0684
35.3843
34.9588
22.7486
50.3996
20.5178
21.7855
33.5628
25.6193
33.5413
29.3611
31.5335
30.1967
30.5438
27.9592
50.4277
27.5374
32.6535
31.7834
21.7184
26.8879
23.8999
39.548
34.6212
32.958
52.6933
36.0653
33.8147
20.2931
24.6841
36.1115
29.2052
25.6484
37.0732
17.8429
22.7482
45.5922
37.3866
22.9225
35.0909
34.8626
36.7916
32.0016
37.1354
31.205
26.1893
37.0485
33.1694
40.2141
27.3433
29.0706
21.7613
21.7203
29.0344
40.3276
21.6177
41.152
36.3659
36.2785
38.6403
17.5268
43.0055
26.6781
42.9297
22.4474
26.0898
28.6497
42.1425
44.1085
21.4312
21.1846
35.2038
32.6447
44.332
38.5436
32.7795
26.9526
39.6943
42.2869
33.7854
24.4678
22.9343
29.1996
25.7301
35.9296
16.9814
32.207
26.7783
20.6744
32.5804
40.2017
42.4695
30.2676
24.4115
38.9449
24.1976
25.5876
39.4178
33.5069
31.8434
19.6787
31.0387
25.6153
27.788
39.6696
36.5589
17.6417
35.5029
30.6751
27.1832
26.0965
21.7756
42.4928
20.1067
19.2358
23.7819
36.9353
28.1032
19.379
32.255
33.1955
24.6075
29.3811
34.0755
32.0788
20.9092
36.2702
39.9387
27.3676
23.2228
24.9515
35.3563
32.369
35.8911
28.7115
20.3599
29.2946
34.2914
36.6106
41.4521
23.6574
18.4428
28.1059
31.2833
20.8022
18.4624
19.2559
34.6783
34.1511
27.8642
25.3564
27.6872
22.8061
17.8628
32.8504
23.1516
35.2177
35.9835
27.4039
28.9901
34.3012
32.4851
24.453
31.8366
22.371
29.6421
43.882
24.1735
23.1208
35.4696
26.9533
32.5177
27.5634
34.7657
23.4232
19.2707
18.484
18.7958
19.6331
18.0772
34.0786
20.6496
31.6574
26.823
35.3917
27.1228
27.8649
28.8932
25.0622
30.0273
34.1911
24.1036
39.1868
35.7596
32.783
38.3122
24.0859
38.3456
26.0477
31.2422
36.1738
34.1683
26.4864
25.1567
23.3235
18.8332
30.4966
27.1747
19.303
25.7794
26.1649
34.3355
27.6642
22.9238
21.2
17.2637
19.2042
30.6183
25.5815
19.077
27.7707
25.5826
28.7826
32.5381
35.1605
29.9593
25.2755
28.0675
34.015
29.9544
37.7284
27.6061
25.2
34.8819
26.2637
39.2268
24.5549
27.3394
22.0864
25.2156
20.4908
29.8022
32.9451
21.1005
24.9999
23.0385
18.7789
26.4835
28.2623
23.7877
28.2542
32.8976
29.221
25.2387
31.7594
24.2593
17.7846
23.4231
16.333
29.6542
20.8145
28.9436
26.6037
25.0674
29.2002
31.2137
27.7853
34.8924
22.933
21.8077
31.2023
32.8912
28.2311
31.9636
39.4755
24.4466
18.5167
20.7691
25.1593
22.3383
23.7138
24.9977
19.8184
18.6668
23.0857
28.0597
25.0985
23.508
30.9844
30.0999
27.5156
25.6258
23.453
31.0643
23.3545
24.3519
25.5738
23.9493
18.5882
26.0113
28.8419
27.3541
16.3086
23.266
28.4214
30.8616
21.1605
25.5145
22.2182
29.0947
19.6587
31.4707
27.013
35.6637
22.4028
23.2306
26.2991
22.7619
24.6446
25.4311
24.9385
28.0974
22.9219
26.9207
23.971
31.5826
25.3568
30.7318
23.1441
21.6224
37.5531
19.1252
26.306
26.841
24.4258
25.822
23.0916
24.5129
23.0689
25.9153
28.0831
26.8006
27.4273
24.3334
22.4807
30.3847
25.9479
24.1712
23.9833
26.7062
23.3047
28.1593
23.1564
19.5795
28.0261
25.742
20.4172
24.1261
28.7188
29.4443
25.4226
24.447
28.9877
26.7283
23.5183
15.5657
24.2026
29.8569
25.7839
30.9589
26.0255
24.7438
26.7898
23.7054
26.6304
23.3894
30.7163
26.0345
24.12
29.4797
25.0119
26.8102
26.5939
20.9246
26.1087
23.5116
24.8103
35.5415
25.2936
26.8491
27.9056
24.4438
26.324
23.8177
25.5076
20.1133
26.9094
25.6089
29.0144
28.9086
24.7166
26.4245
29.3668
19.6849
23.2716
26.9656
25.7492
24.0442
26.5402
24.9297
26.6203
24.5666
25.9903
27.0305
37.3137
26.7294
27.5505
24.5338
27.0999
26.2151
22.8542
24.5039
29.7994
25.823
26.9048
25.5412
25.3866
26.3942
27.1748
23.0752
27.0144
26.0387
30.144
28.5022
30.9988
24.8033
27.2557
28.3282
26.6177
26.6705
16.2733
26.231
27.1816
25.6555
25.7444
24.8855
20.6696
26.8003
27.3283
27.2753
28.3345
19.7742
30.9348
27.4128
26.9917
29.7979
25.5919
26.5348
27.4164
26.0906
27.5956
27.4942
26.1206
27.1514
26.6758
30.0848
27.499
25.7613
27.9102
24.8127
29.6872
27.5828
27.2937
35.7556
26.7907
27.6098
25.5504
26.7314
27.6708
27.4113
28.8999
26.3401
27.6873
22.8349
27.7601
27.5227
26.4122
28.4595
27.7761
27.7957
27.4069
27.8498
20.3282
27.3154
27.8763
26.6112
27.8822
25.9349
27.9574
27.8247
27.8748
27.4082
27.4835
26.6045
28.0512
27.9821
27.9198
27.8041
27.6239
28.1679
31.0913
31.6048
28.0109
28.1386
28.1387
26.3469
22.3818
27.665
28.2895
29.7167
26.8324
28.2542
27.749
28.2781
28.1169
27.9197
27.7178
28.427
28.0697
30.4094
28.3212
28.3681
27.1425
31.6253
28.5856
28.1584
25.3611
27.9827
26.5266
26.95
28.485
27.561
28.4892
27.2767
27.7787
29.4945
20.4702
24.3128
28.2523
28.7523
28.1234
17.5115
28.2434
27.8486
28.731
28.5137
28.9117
27.2191
28.3142
28.2294
28.1734
30.7583
27.6032
28.9256
28.642
27.6805
27.8429
29.0761
31.9693
28.3776
19.0115
28.8569
28.1247
23.5865
29.024
29.2567
28.3774
28.2566
26.5515
38.155
28.9984
28.6148
25.231
28.81
31.8502
20.2591
28.7901
29.2691
28.6113
27.1517
29.4366
29.4048
28.4735
29.098
29.2037
27.805
28.6806
29.5748
30.224
29.6013
25.4788
29.7571
28.1049
27.3004
21.4158
29.2327
29.3131
28.7406
28.9219
26.4533
29.8152
29.7552
33.3892
28.0858
29.2961
29.4641
27.3627
28.7407
29.954
29.3195
33.3495
29.9096
28.0862
20.3676
23.8883
29.3942
31.6478
29.8929
28.7255
28.2779
28.9208
30.2062
24.8837
30.0375
31.5323
29.7434
21.6139
29.9176
29.3984
28.6722
26.3351
30.2559
16.0713
37.3809
30.407
18.9104
30.128
27.3512
22.116
29.4422
34.9098
28.5713
30.5059
23.6558
30.5807
27.1252
34.9161
21.0474
30.1699
29.3353
26.6097
20.4017
19.5331
24.734
25.2538
28.3984
32.895
28.8086
30.7267
30.7914
34.9778
30.7617
26.7848
30.1665
29.2186
29.2591
20.3038
28.2624
29.4969
20.1132
31.1266
21.2918
30.1071
30.9847
30.8297
30.0449
27.4777
29.0218
27.8513
23.4679
18.8807
36.4566
35.9822
25.1608
31.2405
30.8518
31.2739
29.8906
19.4426
28.8084
33.0522
31.154
27.4153
33.803
25.0352
20.0184
24.595
16.4774
28.0694
30.7169
31.3783
29.6212
28.3286
21.6622
26.7801
35.7492
21.9525
23.7238
30.5131
29.2814
31.6457
19.2329
27.9032
19.0431
26.0945
23.0826
18.4776
28.905
31.7168
21.2333
24.0742
37.4698
37.0123
27.1705
34.4152
30.0315
21.4416
29.8747
19.4456
28.8139
30.0656
27.1681
26.7928
25.1162
31.3769
19.8541
36.1833
32.0368
21.5257
28.2567
26.4123
24.1181
27.6064
29.6705
31.1056
25.3262
31.7604
17.9344
27.4824
20.6234
31.7024
20.5257
17.6352
17.9688
25.282
22.8125
38.6651
27.4949
33.7689
21.719
28.9892
30.6175
31.0971
19.9501
26.4485
21.0131
38.3508
30.7066
21.5897
24.2239
19.3352
18.4501
17.8257
26.6615
30.3706
28.3449
24.0643
21.6838
30.0999
27.0852
18.1909
24.8008
27.2494
32.5964
31.445
32.0284
20.4617
22.8439
18.8878
18.3688
30.4787
25.4724
27.4204
32.9492
29.0713
39.6052
28.5927
31.6599
19.3339
30.9585
18.5782
21.0128
21.5625
26.5024
19.1149
24.2574
20.0983
26.0044
14.2507
39.0149
26.5203
24.2826
28.281
35.5488
34.0788
18.6957
18.47
20.1657
19.2288
30.1878
22.6843
27.0148
18.2624
17.4132
21.0642
31.9753
25.1888
27.3161
29.7454
24.1359
18.1007
40.8335
34.262
25.9701
19.2337
25.5646
21.2111
26.2204
20.2862
32.4404
23.8616
22.1235
21.206
24.0236
32.6397
18.7747
26.286
24.9871
17.5786
18.5793
29.4222
14.4888
34.6538
43.581
19.8737
31.097
28.1188
28.3201
26.9501
24.9143
22.2359
36.9696
25.3704
20.2771
26.4912
24.8399
18.6478
23.4789
25.5839
28.5054
18.6525
26.8185
20.1646
39.4356
28.0374
20.8182
29.62
32.2518
25.1472
24.7891
17.1174
21.3957
23.5079
20.7561
34.5119
34.6769
19.0312
31.5809
18.7363
27.1789
30.9465
23.3563
36.291
26.2539
18.2766
29.5667
16.9259
19.5896
19.0445
29.6751
50.4978
31.2041
37.4686
25.3567
24.9529
21.4163
36.9638
26.9364
24.0769
19.8935
20.459
25.0912
22.5191
29.412
20.9742
33.7432
19.4251
17.8121
32.6346
26.693
33.22
19.8998
27.7896
25.0766
34.8935
23.3493
23.1524
51.4626
29.4935
25.0662
27.7173
31.7059
20.9669
35.5552
32.8329
42.2791
34.5612
23.9689
23.4245
29.4991
16.0938
27.8758
25.2759
20.4575
40.8265
37.0246
20.1045
36.0774
27.9968
28.075
20.8385
24.6092
23.1791
25.3536
24.8064
29.9421
22.0968
35.5943
30.4358
28.6858
20.4577
24.4896
35.9228
50.3113
30.9672
18.5934
19.2828
30.2961
21.8933
26.3265
32.3783
40.76
29.0884
28.661
21.9706
51.8383
34.4835
28.5104
21.3007
38.0641
32.8893
33.8853
31.3165
30.6333
26.7386
25.1309
26.0661
16.3535
32.7325
28.5292
27.5957
28.3422
22.27
26.0131
32.3597
26.7981
31.3881
29.0917
29.8116
40.115
19.5051
28.4563
24.6342
19.9212
24.4468
25.3491
31.0464
32.188
36.5666
32.0264
28.47
27.0794
24.9412
30.1615
53.0278
26.0565
27.9441
29.9917
59.0024
22.0037
21.1295
38.3689
25.5292
21.8403
33.108
25.751
31.2407
31.0637
38.4876
24.607
29.1817
36.1368
34.3962
30.9513
37.2616
31.5978
35.1704
27.1571
28.1555
20.2797
31.1515
26.8567
18.4929
31.9763
24.5314
33.6376
27.6081
27.3599
28.5747
36.4102
21.4925
21.7379
25.686
39.7995
21.5482
24.9073
29.1891
25.4163
30.9375
20.4752
22.9706
35.0535
28.873
31.2645
28.3297
24.4168
31.0971
22.1026
25.5636
27.4041
31.7447
30.1482
55.0463
32.3094
23.9432
65.3865
28.5272
27.5141
38.2256
22.1314
37.2107
31.5139
32.6239
38.2793
35.889
25.8546
36.4167
32.8327
34.5043
25.088
30.4163
23.1648
30.1688
23.6231
41.998
30.366
25.9808
22.3147
34.6783
14.5814
24.7251
26.0128
37.0387
23.3759
24.5196
32.6736
24.6127
19.4291
30.0021
28.1005
32.6368
21.9109
23.8063
28.7102
30.0981
32.7125
22.7728
23.8935
26.3318
26.6588
36.9086
21.5308
29.149
29.3064
26.6526
24.1744
23.2039
30.8893
22.4831
30.9467
34.9515
33.8407
29.3703
30.3922
25.362
34.0367
24.1396
24.1275
50.4504
29.2507
65.0848
29.664
22.2699
32.4101
27.8933
40.3922
37.4508
33.5329
30.971
25.428
27.4967
33.8797
40.415
27.7359
24.3138
27.6562
30.3936
33.7912
36.956
30.9729
28.6383
22.1023
32.7875
25.0192
19.6233
28.4921
16.8745
29.555
32.6435
24.2181
22.7968
33.4809
24.0641
23.0394
28.322
30.4841
27.2006
22.3682
27.4889
23.0352
26.4605
21.7752
27.8734
24.2423
32.0081
35.0208
32.7736
23.8138
30.6242
22.2327
28.3238
28.3639
27.3284
31.1362
24.4054
21.5596
26.3557
28.8803
29.6062
23.3497
32.1024
21.8965
21.6427
27.3803
31.155
29.8531
27.4989
50.4764
27.9347
66.3028
35.2877
26.0931
21.4613
25.4681
42.0106
27.2609
22.8144
30.34
23.1898
33.7161
27.7895
31.4759
18.7345
24.3364
29.2029
27.0098
25.7248
21.2446
27.2605
26.5727
39.313
31.8762
23.0881
20.7342
27.9712
22.9044
18.3635
25.6044
20.9154
45.7565
35.9443
34.9449
26.3986
25.5186
22.0749
26.2369
22.5306
20.9685
27.8881
25.4953
23.0263
24.9525
20.7931
30.2926
24.3556
26.8515
31.3405
25.2933
26.9294
24.2065
26.3713
27.1744
22.9793
27.5921
25.7198
20.4463
36.1433
20.9833
30.0836
25.2317
24.44
22.749
23.7834
26.3315
27.2749
22.2661
20.5744
27.5138
40.802
29.9101
20.908
24.7861
37.3273
34.1256
22.3763
25.8695
24.6642
21.6145
27.0436
20.322
27.8654
30.084
21.0234
20.3541
39.153
22.3551
27.9579
35.3084
28.3464
27.8676
17.2893
54.791
54.4515
29.8649
21.6001
20.318
40.383
24.8954
21.0526
22.7503
24.5599
22.2384
22.4329
26.5645
25.5193
36.9306
29.1606
26.705
28.0664
20.2813
21.0341
22.2039
20.4944
24.8697
28.878
22.8477
20.7319
37.6645
36.2286
20.2747
21.0104
22.1824
25.0765
24.0123
23.5095
20.6933
30.5668
26.5835
21.86
28.1589
20.5618
29.8892
22.3048
27.6662
20.7118
22.4794
33.5263
24.1574
22.3653
20.4089
22.4613
28.169
21.1122
37.0881
34.5499
18.5477
39.2399
26.2661
41.1889
22.399
46.6374
27.204
28.4159
23.3425
20.5022
21.2645
21.2311
26.1376
22.2999
20.7077
26.4742
20.9963
21.2775
25.3796
21.8942
22.4035
25.8363
32.9463
28.291
28.4173
69.9239
26.3355
20.7879
21.359
21.8808
22.4636
26.9964
31.6295
20.9264
24.8247
22.3543
21.6048
22.5752
29.4934
20.9679
21.3048
33.8579
23.035
26.5071
21.7079
22.5977
25.9759
41.6757
21.0427
36.89
21.6787
38.2017
31.9639
22.7516
21.3567
28.8569
26.5559
21.7636
22.6718
39.2827
21.5872
29.6821
27.6118
18.7999
22.8656
28.3603
21.6738
32.5262
26.6268
26.397
25.6615
56.7411
19.4378
23.1216
31.3788
21.5414
21.8965
33.3413
27.8154
28.3376
21.1599
23.2634
33.5955
23.0671
21.6514
25.6193
28.9352
47.2877
22.2563
23.0837
30.9585
23.4036
41.5919
22.4626
30.3412
31.156
40.074
33.8178
22.428
23.2708
23.5541
31.1401
24.7676
22.4073
29.4142
30.501
38.5151
37.4272
23.9503
20.0636
44.004
23.0109
32.1944
26.5697
28.0348
16.649
30.5065
22.7289
27.1977
32.171
21.2215
24.2237
36.1506
22.8691
25.4505
24.3399
61.262
23.1815
40.631
30.1132
21.4353
24.7378
25.9247
24.3841
27.6125
23.4963
33.6488
27.5261
25.4011
23.4411
33.33
37.6565
24.5397
35.2808
25.9506
24.0009
32.0268
38.7585
23.669
20.5983
30.9294
37.3038
24.8184
26.4656
34.4897
34.4069
23.8659
31.2749
27.5878
18.6653
33.6994
25.0968
34.2859
26.9112
22.6879
23.5919
25.1142
41.5951
63.2359
26.4119
25.4722
22.7061
21.989
25.4604
28.2602
22.9333
35.359
24.2111
24.427
35.8025
39.9188
40.6215
23.5065
25.7409
20.2405
25.6664
27.3584
34.0755
29.0218
32.0699
24.621
34.7274
29.1182
37.2865
37.8598
27.6735
26.9369
25.9021
28.6858
35.5543
42.4319
31.2127
51.5805
24.7286
25.2111
37.1729
22.4072
31.7393
20.2263
21.2542
30.1253
26.0793
21.6585
33.059
21.3488
41.7376
22.0793
50.6437
30.4259
25.0687
19.9303
37.2567
23.1623
26.7903
29.6728
34.015
25.2388
42.6772
29.7986
36.5794
28.0678
25.0354
31.921
44.1674
27.5748
27.0341
29.141
20.0339
40.391
34.1333
23.8958
24.7001
25.1636
41.476
27.507
29.433
18.5254
62.3041
26.6903
26.6734
40.1323
22.9087
37.2992
24.0012
33.1088
27.0522
29.5811
29.6641
25.469
26.001
24.2395
33.6943
39.7067
27.1532
45.3927
26.7825
23.0426
38.9921
29.1275
31.8903
26.8948
25.2899
33.6241
26.9765
31.4977
39.5515
42.3803
19.8552
25.6768
20.3079
33.0367
27.6235
61.9821
25.2966
26.5101
25.092
26.771
40.8183
19.5719
39.8051
33.5533
23.357
24.7937
28.7583
46.7363
23.1407
37.3937
27.5737
25.2571
21.9574
26.706
30.4687
19.3803
21.5595
33.75
30.5125
33.5162
42.1758
28.7966
25.233
29.05
43.4874
26.6332
39.5493
40.4277
20.6731
28.5509
33.8924
29.9085
45.2735
25.1095
25.388
32.0775
26.7
26.9561
41.2303
47.0429
28.0279
37.8761
41.4782
34.0573
22.6772
35.2017
24.0331
19.9236
25.1754
26.9966
23.5643
40.9001
38.0606
43.8308
39.124
26.4521
27.1603
34.055
28.5609
27.1625
25.2556
19.1057
20.1614
44.3323
27.3649
33.4852
28.1694
32.789
49.0051
25.4213
22.0995
36.4262
31.7113
26.5336
26.9299
37.8241
47.6562
33.0284
29.7918
27.6681
16.6344
40.4748
25.5526
31.432
41.4736
24.6872
32.0636
29.7029
32.2517
49.3562
25.8412
38.2321
37.0349
30.0514
29.1771
27.2723
21.1953
26.0054
46.7449
25.3707
28.1002
46.176
49.1339
26.5382
44.0524
25.4119
40.5118
27.19
19.9194
18.2667
28.8739
25.6891
20.6215
35.7786
27.6257
48.4199
22.0261
35.4392
23.5657
27.346
47.419
33.5036
47.931
25.9339
26.5526
32.7378
24.9606
27.7225
24.0631
28.3857
31.4887
27.0035
33.8304
22.2089
33.8592
27.0897
18.9772
27.5933
39.3123
41.957
35.9824
19.1837
38.3511
45.7795
43.4945
45.2652
23.6566
20.706
27.8623
29.5695
31.2018
51.5505
26.3561
29.8269
31.7541
39.1842
21.6092
28.9289
22.9619
41.0157
28.6875
32.5302
23.6518
44.2308
55.3524
23.3233
35.6807
26.7747
18.8914
36.715
26.9935
28.9832
45.3235
43.3069
20.8899
29.5161
24.1352
41.5092
23.7985
20.0231
33.8038
24.2206
34.1071
22.5088
29.2065
35.007
26.0341
42.0419
53.5323
26.7208
28.8687
26.3409
24.0818
26.8356
33.0509
31.8967
21.7775
39.2306
38.7836
29.3107
41.4007
26.4657
26.4613
40.3957
19.9288
25.5917
37.0486
30.0199
19.7513
27.3615
46.6274
22.5445
26.8162
33.7714
27.4215
25.3426
28.8808
22.1228
41.9142
23.587
25.3222
30.2979
22.6887
34.3308
32.2687
26.8323
54.8741
42.9095
29.4522
38.1941
28.2871
44.3899
27.3264
26.0154
35.3218
26.7354
44.0958
25.8417
35.8211
32.4646
29.6221
36.8608
22.6321
25.5418
38.9595
29.7744
37.957
26.1443
38.792
25.6465
24.6925
31.1677
36.6176
40.7012
53.3531
29.5422
37.1669
25.4548
32.9398
25.7438
23.912
35.3386
40.7974
23.7212
30.9568
35.2956
25.2721
34.6607
27.7032
35.3697
25.0671
23.303
44.3806
30.6618
32.0263
23.606
32.7083
30.316
35.7409
34.2591
23.1954
24.8107
25.1774
35.0612
44.4752
38.786
46.9999
26.1657
38.0476
35.9347
34.7305
22.7685
23.768
31.3882
37.9566
30.0273
36.2267
35.311
43.7463
22.4926
23.4103
33.602
32.1771
36.0352
28.8564
34.3923
21.6392
44.6712
33.0798
31.3073
22.5449
30.7856
36.0884
37.4577
34.5868
28.7876
22.6616
20.325
31.4691
28.605
39.4679
27.386
42.1959
32.4075
22.1061
28.5296
19.8884
34.9472
35.8397
28.7972
19.7812
21.9803
26.2706
41.7721
40.2165
19.865
21.3419
28.4202
34.7561
20.6642
26.2782
20.9908
29.122
20.3273
20.552
21.2855
SCALARS friction float 1
LOOKUP_TABLE default
11.819
11.8602
13.0188
13.1246
11.6323
11.4066
12.9493
11.2353
11.3457
10.2759
10.6066
12.6326
10.3725
11.0185
11.2448
10.5663
9.76503
11.6304
11.3557
10.6983
10.6616
10.87
10.788
11.1752
9.15472
9.95274
10.0016
9.97577
9.34981
9.89074
9.44234
10.6171
10.7516
10.4384
9.52548
10.2537
9.61463
10.3351
10.425
10.7368
10.1493
9.5237
9.4864
8.91161
8.79433
9.79597
9.3089
9.01824
8.79209
9.65377
8.6865
8.45955
8.90394
10.422
8.64679
8.65143
9.87922
9.92071
8.91797
8.93814
9.17569
9.04975
9.92277
7.9546
9.17242
8.73234
8.94926
9.06832
8.61476
10.9071
9.25384
9.32059
9.0552
8.64015
7.7115
9.51494
9.24376
8.94399
8.96874
8.68656
9.20038
8.15743
10.5604
8.73738
9.70997
7.23371
8.12271
8.44849
8.62863
8.03917
8.54544
8.13589
7.79767
9.74595
11.1495
7.96812
7.00957
10.0649
8.12214
8.1478
8.12769
7.99282
8.48149
7.68726
9.13925
7.98102
7.47406
9.24817
7.82838
10.9281
6.72337
7.06119
10.1764
8.2416
8.43182
7.7253
7.84683
7.24975
8.93677
7.71092
10.1056
7.43522
8.4961
11.109
8.57099
6.68768