# vtk DataFile Version 3.0
File generated from DClib
ASCII

DATASET UNSTRUCTURED_GRID
POINTS 2394 float
75 0 0 
74.0132 0 0 
75 1 0 
74.0132 1 0 
73.0263 0 0 
75 2 0 
72.9355 1.08748 0 
73.9223 2.08748 0 
72.0395 0 0 
75 3 0 
72.8446 2.17496 0 
71.9486 1.08748 0 
73.9223 3.08748 0 
71.0526 0 0 
75 4 0 
72.8838 3.58748 0 
71.5238 2.50694 0 
70.6278 1.41947 0 
73.9615 4.5 0 
70.0658 0 0 
75 5 0 
71.563 3.91947 0 
72.9229 5 0 
69.641 1.41947 0 
70.203 2.83893 0 
73.9615 5.5 0 
69.0789 0 0 
75 6 0 
69.1476 2.44434 0 
72.9229 6 0 
71.6239 5.5 0 
70.2639 4.41947 0 
68.5855 1.02487 0 
73.9615 6.5 0 
68.0921 0 0 
75 7 0 
68.0921 2.04975 0 
72.9229 7 0 
71.6239 6.5 0 
68.6542 3.74338 0 
67.5987 1.02487 0 
73.9615 7.5 0 
70.3248 6 0 
67.1053 0 0 
75 8 0 
67.5987 3.34878 0 
67.1053 2.04975 0 
68.7151 5.32391 0 
73.0785 8.1 0 
66.6118 1.02487 0 
74.1171 8.6 0 
66.1184 0 0 
75 9 0 
66.6118 3.34878 0 
66.1184 2.04975 0 
71.6239 8.5 0 
67.1053 4.64782 0 
69.1755 7.15213 0 
70.3248 8 0 
73.2341 9.2 0 
65.625 1.02487 0 
74.1171 9.6 0 
67.5657 6.47604 0 
65.1316 0 0 
75 10 0 
65.1316 2.04975 0 
71.7795 9.6 0 
73.0785 10.1 0 
64.6382 1.02487 0 
65.1137 3.65591 0 
73.9615 10.5 0 
65.6071 4.95495 0 
68.0262 8.30425 0 
69.1755 9.15213 0 
64.1447 0 0 
66.0569 6.38442 0 
75 11 0 
71.6239 10.5 0 
70.3248 10 0 
64.1447 2.04975 0 
72.9229 11 0 
63.6513 1.02487 0 
64.1268 3.65591 0 
73.9615 11.5 0 
66.5173 8.21264 0 
63.1579 0 0 
75 12 0 
63.1579 2.04975 0 
64.1089 5.26208 0 
73.0785 12.1 0 
67.2259 9.58662 0 
68.3752 10.4345 0 
62.6645 1.02487 0 
64.5587 6.69155 0 
63.14 3.65591 0 
74.1171 12.6 0 
62.1711 0 0 
65.0085 8.12102 0 
70.3248 12 0 
71.6239 12.5 0 
62.1711 2.04975 0 
75 13 0 
65.717 9.495 0 
68.9358 11.8258 0 
62.6466 4.95495 0 
73.2341 13.2 0 
61.6776 1.02487 0 
63.0969 6.3615 0 
74.1171 13.6 0 
61.6776 3.34878 0 
61.1842 0 0 
66.4255 10.869 0 
63.5467 7.79097 0 
61.1842 2.04975 0 
71.7795 13.6 0 
75 14 0 
73.0785 14.1 0 
60.6908 1.02487 0 
63.9359 9.23812 0 
73.9615 14.5 0 
61.1842 4.64782 0 
66.9861 12.2603 0 
61.6346 6.05437 0 
60.6908 3.34878 0 
70.3248 14 0 
60.1974 0 0 
64.6444 10.6121 0 
71.6239 14.5 0 
62.085 7.46091 0 
60.1974 2.04975 0 
75 15 0 
68.9358 13.8258 0 
72.9229 15 0 
59.7039 1.02487 0 
65.5009 12.0501 0 
62.4741 8.90807 0 
73.9615 15.5 0 
67.5467 13.6516 0 
59.2105 0 0 
60.2109 5.66149 0 
62.8633 10.3552 0 
60.6613 7.06804 0 
75 16 0 
59.1118 1.8996 0 
66.0615 13.4414 0 
69.4963 15.2171 0 
73.0785 16.1 0 
63.7198 11.7932 0 
59.2712 4.40082 0 
61.0276 8.51671 0 
58.6184 0.874731 0 
58.7778 3.10178 0 
68.1073 15.0429 0 
74.1171 16.6 0 
70.3248 16 0 
58.2237 0 0 
71.6239 16.5 0 
64.5763 13.2312 0 
61.4167 9.96386 0 
75 17 0 
66.6221 14.8327 0 
58.0263 1.74946 0 
59.2376 6.67516 0 
62.2346 11.583 0 
73.2341 17.2 0 
57.6316 0.874731 0 
59.6039 8.12383 0 
57.6923 2.95164 0 
58.2979 5.41449 0 
68.6678 16.4342 0 
74.1171 17.6 0 
65.1369 14.6226 0 
63.0911 13.0211 0 
57.2368 0 0 
59.9702 9.5725 0 
71.7795 17.6 0 
57.1382 1.8996 0 
75 18 0 
67.1826 16.2241 0 
69.4963 17.2171 0 
60.8215 11.2716 0 
57.3582 4.15382 0 
73.0785 18.1 0 
56.7434 1.02487 0 
63.6517 14.4124 0 
56.8041 3.10178 0 
57.8154 6.75019 0 
58.376 8.14151 0 
65.6974 16.0139 0 
73.9615 18.5 0 
61.6059 12.8109 0 
70.3248 18 0 
56.25 0 0 
71.6239 18.5 0 
56.25 2.04975 0 
58.7423 9.59018 0 
56.8757 5.48952 0 
75 19 0 
59.3749 10.8802 0 
67.7432 17.6154 0 
72.9229 19 0 
64.2122 15.8037 0 
62.1665 14.2022 0 
55.7566 1.02487 0 
60.1928 12.4994 0 
66.258 17.4052 0 
68.5717 18.3983 0 
73.9615 19.5 0 
55.7563 3.4912 0 
55.2632 0 0 
56.3932 6.82522 0 
56.9538 8.21654 0 
62.727 15.5935 0 
55.2022 2.43916 0 
57.5143 9.60785 0 
75 20 0 
64.7728 17.195 0 
60.6813 13.992 0 
58.147 10.8979 0 
73.0785 20.1 0 
58.7796 12.188 0 
55.3905 5.27933 0 
54.7088 1.41428 0 
66.8186 18.7965 0 
70.3248 20 0 
74.1171 20.6 0 
63.2876 16.9848 0 
61.2418 15.3833 0 
69.1323 19.7896 0 
54.2763 0 0 
71.6239 20.5 0 
59.2681 13.6806 0 
65.3334 18.5863 0 
75 21 0 
54.1544 2.82857 0 
55.4686 8.00635 0 
54.908 6.61503 0 
56.0291 9.39767 0 
73.2341 21.2 0 
53.7219 1.41428 0 
56.5897 10.789 0 
61.8024 16.7746 0 
57.2224 12.079 0 
63.8482 18.3761 0 
59.7566 15.1731 0 
67.3791 20.1878 0 
74.1171 21.6 0 
53.7886 4.61671 0 
53.2895 0 0 
71.7795 21.6 0 
57.7829 13.4704 0 
53.2285 2.43916 0 
65.8939 19.9776 0 
75 22 0 
62.363 18.1659 0 
60.3172 16.5644 0 
73.0785 22.1 0 
52.7961 1.02487 0 
53.9834 7.79616 0 
54.5439 9.18748 0 
64.4087 19.7674 0 
58.2714 14.9629 0 
70.3248 22 0 
53.4228 6.40485 0 
73.9615 22.5 0 
55.1045 10.5788 0 
69.1323 21.7896 0 
52.7351 3.7382 0 
52.3026 0 0 
67.9397 21.5791 0 
55.6651 11.9701 0 
71.6239 22.5 0 
52.3026 2.04975 0 
60.8778 17.9557 0 
62.9235 19.5573 0 
58.832 16.3542 0 
75 23 0 
66.4545 21.3689 0 
56.2257 13.3614 0 
72.9229 23 0 
51.8092 1.02487 0 
52.3693 5.52633 0 
64.9693 21.1588 0 
51.8092 3.34878 0 
56.7862 14.7527 0 
73.9615 23.5 0 
61.4383 19.3471 0 
59.3926 17.7456 0 
51.4145 1.8996 0 
51.3158 0 0 
53.0587 8.97729 0 
52.4982 7.58597 0 
53.6193 10.3686 0 
71.2128 23.5672 0 
63.4841 20.9486 0 
54.1799 11.7599 0 
57.3468 16.1441 0 
75 24 0 
50.9211 0.874731 0 
51.3158 4.64782 0 
54.7405 13.1512 0 
72.5118 24.0672 0 
69.5776 23.6331 0 
50.9211 3.19864 0 
68.385 23.4226 0 
59.9531 19.1369 0 
61.9989 20.7384 0 
55.301 14.5426 0 
57.9074 17.5354 0 
51.4447 6.70746 0 
67.1321 23.2061 0 
50.5263 1.74946 0 
73.5504 24.5672 0 
50.3289 0 0 
65.6469 22.9959 0 
55.8616 15.9339 0 
75 25 0 
51.5735 8.7671 0 
52.1341 10.1584 0 
49.9342 0.874731 0 
52.6947 11.5497 0 
60.5137 20.5282 0 
58.4679 18.9267 0 
72.1008 25.1344 0 
53.2553 12.941 0 
49.8355 3.34878 0 
56.4222 17.3252 0 
53.8158 14.3324 0 
70.4655 25.2003 0 
73.5504 25.5672 0 
49.4408 1.8996 0 
49.3421 0 0 
63.815 23.2124 0 
59.0285 20.318 0 
49.9595 6.49727 0 
54.3764 15.7237 0 
61.0743 21.9195 0 
56.9827 18.7165 0 
75 26 0 
68.8303 25.2661 0 
49.3989 5.10595 0 
67.5774 25.0496 0 
48.8487 1.02487 0 
62.3298 23.0022 0 
50.6489 9.94823 0 
66.3246 24.8331 0 
50.0883 8.55691 0 
51.2095 11.3395 0 
54.937 17.115 0 
51.7701 12.7309 0 
72.4347 26.4726 0 
59.5891 21.7093 0 
57.5433 20.1078 0 
48.3553 0 0 
52.3306 14.1222 0 
48.3553 2.04975 0 
70.9797 26.4993 0 
55.4975 18.5063 0 
73.8843 26.9053 0 
75 27 0 
52.8912 15.5135 0 
47.8618 1.02487 0 
69.3444 26.5651 0 
64.4926 25.0496 0 
58.1039 21.4991 0 
47.9186 3.80692 0 
53.4518 16.9048 0 
68.3162 26.5651 0 
60.1497 23.1006 0 
56.0581 19.8976 0 
67.0633 26.3486 0 
49.1637 9.73804 0 
49.7243 11.1294 0 
47.3684 0 0 
48.6031 8.34672 0 
50.2849 12.5207 0 
47.3684 2.04975 0 
61.4051 24.1834 0 
66.035 26.3486 0 
48.0426 6.9554 0 
54.0123 18.2961 0 
50.8454 13.912 0 
72.7686 27.8107 0 
73.8843 27.9053 0 
75 28 0 
47.482 5.56409 0 
71.3136 27.8374 0 
62.6606 25.2661 0 
58.6645 22.8904 0 
51.406 15.3033 0 
56.6187 21.2889 0 
46.875 1.02487 0 
46.9318 3.80692 0 
69.8586 27.8642 0 
54.5729 19.6874 0 
51.9666 16.6946 0 
68.8303 27.8642 0 
46.3816 0 0 
64.203 26.5651 0 
46.3816 2.04975 0 
67.802 27.8642 0 
57.1793 22.6803 0 
52.5271 18.0859 0 
48.2391 10.9192 0 
59.6464 24.5 0 
47.6785 9.52785 0 
48.7997 12.3105 0 
72.856 28.9053 0 
75 29 0 
73.9717 29 0 
47.1179 8.13653 0 
66.7737 27.8642 0 
49.3602 13.7018 0 
71.8278 28.9053 0 
45.8882 1.02487 0 
60.9019 25.5828 0 
46.5574 6.74521 0 
49.9208 15.0931 0 
63.0719 26.7325 0 
70.3727 28.9321 0 
53.0877 19.4772 0 
65.7455 27.8642 0 
69.3444 28.9321 0 
62.1465 26.5651 0 
50.4814 16.4844 0 
58.1612 24.2899 0 
45.3947 0 0 
45.7749 5.05301 0 
45.3947 2.04975 0 
68.3162 28.9321 0 
54.7594 21.7738 0 
51.4788 18.4418 0 
64.6143 28.0315 0 
67.2879 28.9321 0 
45.2247 3.29583 0 
75 30 0 
73.9717 30 0 
72.9434 30 0 
44.9013 1.02487 0 
71.9152 30 0 
46.7539 10.709 0 
47.3145 12.1003 0 
66.2596 28.9321 0 
46.1933 9.31766 0 
70.8869 30 0 
47.875 13.4916 0 
52.0394 19.8331 0 
59.1432 25.8994 0 
55.3199 23.1651 0 
45.6327 7.92634 0 
69.8586 30 0 
48.4356 14.8829 0 
63.4832 28.1989 0 
65.2313 28.9321 0 
44.4079 0 0 
60.3877 26.8818 0 
53.2742 21.5636 0 
68.8303 30 0 
44.4079 2.04975 0 
62.5578 28.0315 0 
48.9962 16.2742 0 
56.4771 24.5037 0 
44.8502 6.23413 0 
67.802 30 0 
61.6323 27.8642 0 
44.2378 3.29583 0 
49.9936 18.2316 0 
64.1002 29.0994 0 
43.9145 1.02487 0 
66.7737 30 0 
59.3793 26.9231 0 
44.0678 4.54192 0 
50.991 20.1889 0 
60.6239 27.9055 0 
65.7455 30 0 
63.0719 29.0994 0 
57.4591 26.1133 0 
45.8292 11.8901 0 
45.2687 10.4988 0 
46.3898 13.2814 0 
43.4211 0 0 
52.2258 21.9194 0 
44.7081 9.10747 0 
43.4211 2.04975 0 
46.9504 14.6727 0 
62.1465 28.9321 0 
58.4385 27.0222 0 
64.7172 30 0 
44.1475 7.71616 0 
47.511 16.0641 0 
59.6155 27.9468 0 
43.251 3.29583 0 
53.4606 23.65 0 
63.6889 30 0 
42.9276 1.02487 0 
61.1182 28.9321 0 
48.0715 17.4554 0 
43.365 6.02395 0 
54.6178 24.9885 0 
49.069 19.4127 0 
62.6606 30 0 
58.6747 28.0459 0 
50.8222 21.6733 0 
42.4342 0 0 
60.1098 28.9734 0 
55.775 26.3271 0 
42.4342 2.04975 0 
52.057 23.4039 0 
56.7544 27.236 0 
44.344 11.6799 0 
49.6295 20.804 0 
44.9046 13.0712 0 
61.6323 30 0 
43.7834 10.2886 0 
45.4652 14.4625 0 
43.2228 8.89729 0 
57.7339 28.1449 0 
46.0258 15.8539 0 
59.1213 28.9734 0 
41.9408 1.02487 0 
42.6622 7.50598 0 
46.5863 17.2452 0 
60.604 30 0 
55.9067 27.3302 0 
52.3471 24.5393 0 
53.1846 25.3346 0 
47.1469 18.6365 0 
41.7707 4.59487 0 
56.8861 28.2391 0 
41.4474 0 0 
58.1804 29.0725 0 
50.6533 23.1578 0 
41.3487 1.8996 0 
59.6155 30 0 
54.3417 26.6731 0 
55.1468 27.4186 0 
47.7075 20.0278 0 
49.4607 22.2884 0 
57.2873 29.0725 0 
56.0384 28.3333 0 
43.4194 12.861 0 
42.8588 11.4697 0 
43.98 14.2524 0 
40.8553 0.874731 0 
58.627 30 0 
50.9434 24.2932 0 
40.9539 3.34878 0 
42.2982 10.0784 0 
44.5406 15.6437 0 
48.2681 21.4191 0 
41.7376 8.68711 0 
45.1011 17.035 0 
41.068 6.0769 0 
40.4605 0 0 
56.4396 29.1666 0 
55.2785 28.4216 0 
41.177 7.2958 0 
57.7339 30 0 
45.6617 18.4263 0 
40.2632 1.74946 0 
51.2336 25.4286 0 
52.071 26.2239 0 
52.9085 27.0192 0 
46.2223 19.8176 0 
49.2716 23.6764 0 
53.7135 27.7646 0 
55.6371 29.1666 0 
56.8408 30 0 
54.5186 28.51 0 
39.8684 0.874731 0 
[...]
POINT_DATA 2394
SCALARS cohesion float 1
LOOKUP_TABLE default
41.3053
41.6128
32.5961
32.1201
43.5467
24.5191
31.6691
24.1192
42.86
21.2143
23.1593
31.8684
20.6571
43.7154
25.2489
22.1499
21.2439
29.0175
30.2565
42.6721
29.4082
25.0908
34.051
28.8519
18.4585
30.1122
43.0894
31.1015
21.7069
32.3491
35.3441
33.8373
31.9322
32.4954
41.6266
32.2738
24.1941
34.8369
35.9833
23.4481
31.7021
36.6096
36.761
41.6325
39.9555
19.8185
24.1063
39.6548
41.4552
31.6316
38.2056
40.0407
34.1797
20.4194
23.6705
42.363
35.8826
47.5336
50.2866
33.7063
32.1785
30.9672
46.0121
40.4107
28.928
24.2492
32.9702
29.7252
32.59
21.172
27.0722
37.6383
54.6761
40.6974
39.9127
46.6671
24.8199
28.0889
30.8631
26.0611
24.7585
33.7553
20.3842
23.2105
53.0116
40.535
22.0002
26.7488
44.5631
22.3711
34.4685
30.4837
35.251
46.1631
21.5444
21.8639
40.3302
53.0374
24.6783
22.8415
29.0248
21.7504
33.872
25.5486
37.6401
21.5785
36.6448
44.5659
19.8492
21.7476
41.4457
28.6143
51.8546
31.5892
21.3157
18.2359
18.2346
37.9829
34.0374
18.1916
35.6228
24.3634
44.2813
21.966
19.1187
41.2576
29.2387
18.4524
49.3235
34.8229
20.6189
21.4858
21.2395
38.9722
24.3155
36.1832
24.691
22.7272
41.6147
42.455
30.0287
45.9309
28.145
37.9923
23.7764
25.6477
28.4553
24.2571
33.0663
39.9307
39.6345
23.3617
25.082
29.3656
33.871
40.5167
32.8536
24.8316
28.0764
28.9522
23.6578
40.2381
44.7673
23.9815
30.0335
39.3734
42.5643
25.6336
41.6972
41.3553
30.1017
21.6354
24.7517
39.3595
27.4373
33.7158
39.3832
30.2593
40.8528
40.5146
26.2435
29.3745
31.8358
38.6768
21.1031
23.713
44.5086
40.7409
39.7663
29.8218
25.1508
35.4059
37.6277
30.1468
36.6811
27.2205
43.1917
28.5645
28.7888
41.3591
27.891
35.5727
20.4942
37.826
23.2762
43.1046
35.9345
29.9959
22.494
34.251
43.2142
39.8837
31.8461
30.5662
26.494
33.6873
42.6143
21.1315
27.7916
36.7865
21.3047
41.3899
36.6956
34.8131
38.4766
41.5509
41.3122
27.9408
37.382
31.9865
41.0238
22.1623
36.6051
45.2571
21.2692
41.0776
44.1992
26.8061
48.3355
35.4418
27.9586
40.7923
20.6579
37.7495
24.5016
39.8027
46.2152
34.6732
31.275
48.7978
22.1426
28.2881
38.1722
42.9124
38.6136
39.6946
45.006
33.581
42.6736
27.3537
35.2855
22.4329
43.5634
45.7507
46.9674
28.5494
44.6712
21.7212
31.9231
44.2099
19.8228
45.6445
32.8373
39.8979
33.779
38.5188
52.874
43.3705
22.3634
55.4628
31.8608
42.19
43.641
20.0762
20.6026
62.3315
31.9135
40.6343
33.8235
31.3385
29.4998
42.9099
27.8755
57.9686
43.4151
21.0453
36.5903
59.0366
30.709
31.0901
21.3576
55.1621
49.504
20.3632
48.794
32.7527
46.15
20.358
41.2455
43.6722
44.7678
34.1006
40.2121
30.9405
42.843
32.6338
32.1927
32.0323
27.3899
29.9632
22.9771
43.9177
33.5933
26.5184
21.1983
19.8075
40.4992
20.3788
25.5642
30.2001
32.1058
30.3079
39.8353
42.1906
45.0694
29.2846
39.615
33.7532
32.2168
22.6739
35.0549
25.1563
29.8917
35.3645
26.8388
26.2021
33.8501
26.0762
39.3787
21.0911
30.3961
40.8044
39.5612
29.4555
21.7784
30.2037
28.7308
32.931
30.3582
29.775
25.9246
29.977
27.1754
24.2655
44.8284
20.2351
36.2769
26.2091
38.3664
37.971
25.185
25.5229
30.3322
29.3499
36.5597
21.9529
29.6231
32.1489
25.0672
42.9455
31.7176
24.8545
27.1795
27.4181
27.5688
42.3013
26.26
22.5938
37.9362
23.8769
46.096
29.7868
20.2831
25.4885
35.1488
35.76
25.5577
29.4242
25.451
30.7135
26.1534
39.1991
30.355
32.1569
28.0389
25.3564
24.8276
21.9274
22.2689
22.0264
38.0124
26.6536
28.2039
21.953
29.6568
22.9764
43.3397
24.0888
24.2619
22.1235
29.4781
26.5435
22.5234
25.7495
35.0193
30.1273
29.5261
33.3322
30.6658
23.1274
43.9451
29.0071
27.0431
23.7824
21.521
25.1663
25.0964
24.9007
29.5476
24.9295
32.8094
27.3098
24.7801
24.2633
25.0461
32.5437
34.1275
25.1978
38.8293
38.696
25.7279
25.6839
28.3072
25.7311
29.4394
25.0746
49.6047
26.4121
31.7084
26.9886
35.1568
27.864
45.2075
27.6421
25.9797
22.1241
29.4389
26.8331
29.0785
28.7185
23.2838
27.3188
37.1589
26.9672
29.834
27.4467
25.8382
31.1203
29.3345
34.5097
29.2058
42.3452
24.902
31.4205
28.8467
27.5229
24.5383
31.127
39.084
33.0151
27.9425
23.5358
34.461
32.2788
28.6001
27.6696
36.1379
44.677
27.2274
30.346
32.4823
27.1788
41.5135
28.565
27.5112
28.3392
31.2616
38.3849
23.8186
33.1752
43.6871
34.4559
32.5864
24.8787
30.5336
25.5846
27.5907
31.7468
27.2674
27.6529
40.2716
39.2273
32.9637
24.2966
27.3444
27.9258
32.6269
30.8509
27.8539
28.1514
27.5286
38.1789
30.539
33.4636
27.0884
23.4076
36.5949
38.5217
26.8443
27.8899
32.4202
32.8293
31.1916
25.9884
33.2931
30.1661
26.1338
20.637
28.7503
42.7283
26.4826
39.5066
47.1819
27.3582
26.8225
27.8091
40.5519
33.2831
35.5256
29.7206
26.8268
28.6564
23.8248
36.6903
36.1601
24.0585
26.4458
33.494
28.2589
24.7427
26.4724
37.0148
40.9768
29.0749
30.0175
31.8348
25.4241
24.0892
33.0666
26.0329
26.408
24.5042
25.6894
16.9712
36.8955
28.8954
29.0488
37.6768
30.8179
25.9147
24.4588
20.992
29.8532
48.503
25.6865
33.2256
41.3099
23.7609
24.2386
36.4735
27.2818
36.9195
32.5289
30.0899
39.1834
25.6109
23.7372
25.1148
28.6882
25.7324
27.3116
27.3666
21.0925
31.7729
24.8786
28.3719
31.6393
22.6042
24.5406
20.9666
21.8727
16.105
37.3229
28.7907
23.0241
30.5073
40.7318
28.4072
24.1479
30.7272
35.7636
45.817
21.2756
22.6588
25.975
24.3873
36.9914
30.0605
23.7423
34.6011
23.6872
28.0272
34.8219
22.3986
27.8648
20.731
22.1253
19.6835
29.0567
23.6589
23.0483
25.0195
18.5808
19.95
26.7821
26.1185
26.1643
28.1413
35.5426
22.9892
26.306
16.0503
35.0414
36.6016
19.3362
27.7487
19.2928
32.0848
27.2943
22.7245
49.0113
19.5438
28.9262
24.4722
22.847
34.1395
28.4837
22.1179
32.5362
36.5195
19.9984
26.5707
22.0826
18.5859
22.3584
19.1605
25.9529
20.8934
18.2441
21.9341
19.9608
18.8078
22.2764
27.5323
17.8435
23.0786
21.624
25.6853
28.0092
19.6544
32.7178
23.0841
28.1418
21.9105
23.3492
34.2518
26.765
18.988
25.2223
38.8865
25.4866
19.245
20.2843
17.9519
19.0027
21.499
32.0382
18.9117
17.2815
24.8706
19.4984
21.2279
21.1958
19.3356
18.0784
30.5225
41.0616
34.2045
28.5218
24.4717
18.5565
19.9812
17.8259
19.8983
16.8029
21.7905
25.5337
24.2103
19.4412
19.4691
27.7896
23.7759
21.5615
19.02
27.1186
23.9404
17.8048
19.2924
16.6418
17.8892
18.7798
21.0651
30.709
17.5669
22.3826
30.1705
19.776
19.127
19.329
23.7394
17.7651
31.6635
21.061
33.9174
20.9285
22.7412
20.1256
19.2756
23.6082
17.8794
31.6323
17.0463
21.2947
21.1208
16.8876
23.7117
19.394
23.464
20.4119
30.2016
21.027
29.2272
17.6625
41.2016
19.549
23.4152
20.2292
18.3447
21.2677
17.4882
19.7318
29.8234
23.3273
18.7184
26.5346
19.638
18.5326
21.2238
24.3476
32.9995
27.2263
23.306
19.8915
17.0012
20.0245
18.6549
21.4602
18.0509
20.0731
23.2789
32.1941
21.4786
21.0036
16.6352
23.2725
20.2493
28.0211
17.5176
20.6851
19.5467
21.7044
17.4208
18.8339
20.4211
23.2685
19.112
21.7465
19.7009
21.8305
21.3907
29.5424
17.6594
23.2777
22.6109
20.6208
19.0422
34.4991
19.8652
21.9781
20.1214
19.0382
17.3701
31.3056
20.8169
23.2934
22.0171
29.7499
29.8953
21.3739
23.3161
21.0111
33.3354
17.2727
20.0871
22.2402
19.2645
20.2494
23.3508
18.2786
21.1745
20.1849
28.4271
22.2813
18.6188
31.6131
28.9286
22.1081
23.3902
21.315
40.3598
20.2649
22.4165
18.169
20.0422
23.4436
21.413
24.8671
17.6763
22.4108
28.3735
23.4435
21.507
19.3514
21.7491
22.5022
24.3145
21.129
23.4462
31.4759
20.8091
24.3128
19.4634
22.5298
18.1734
23.4676
25.1366
22.1652
18.5583
20.9306
19.2908
23.4974
22.2047
25.447
26.2299
21.0305
23.5631
27.7827
22.2186
25.4876
22.3322
24.9215
18.1594
28.604
20.8687
23.6419
22.9215
19.2192
24.9966
27.2673
22.4299
18.7511
26.774
20.7364
23.7541
26.2643
23.7278
22.1675
25.2508
19.4902
37.6561
23.8984
26.5011
28.2185
21.0065
19.1395
18.57
25.38
28.4401
22.3429
19.4722
28.073
20.8812
29.1303
24.0371
26.7697
24.0857
20.7047
36.5162
21.326
28.3117
22.7071
26.4493
24.2961
29.2335
21.2028
27.7504
25.496
30.8866
19.1525
22.9782
26.6618
29.0445
19.9319
24.5733
23.7321
21.1485
31.3858
26.3515
28.6692
18.1451
22.781
24.894
28.4627
20.4657
29.0972
42.2686
26.6561
19.1806
29.7592
21.7547
24.6148
30.9613
33.0749
23.1725
28.2465
29.6604
25.3059
33.3812
20.4877
27.2047
22.4199
29.882
28.7654
23.9803
19.5536
25.739
27.8487
28.1353
29.936
25.1097
29.0397
27.6411
22.3698
29.3097
20.3549
29.3636
24.5233
26.281
24.7948
30.3211
28.3459
22.3137
30.5226
29.9168
24.3676
20.9295
25.9963
26.9211
30.8203
26.9813
24.709
28.9239
35.8486
23.1038
30.5855
26.0063
24.1297
25.115
26.784
27.6643
20.6533
21.3313
27.9072
32.2836
29.7963
31.3326
29.7529
23.8667
35.928
22.1362
26.1067
29.5278
28.466
31.2481
21.2386
30.5781
24.7736
32.0652
24.3293
24.5166
27.0795
31.3906
27.4512
19.3683
29.4424
31.6072
26.3584
28.8622
31.7161
31.1804
28.2996
32.7534
21.4141
34.0477
22.4836
24.5601
26.4814
27.5325
31.4065
30.4854
34.4153
32.533
18.3001
33.5729
23.6216
26.023
23.0988
20.1338
31.9637
25.5639
28.8093
31.6714
27.8768
33.6793
34.0138
25.0085
32.7587
26.0457
28.2959
29.3385
26.3933
29.9161
23.9243
32.9463
16.7373
34.7427
40.4087
32.013
34.2662
21.9954
20.0576
18.3652
28.619
37.1009
26.6791
31.4911
27.6719
34.4474
35.7024
21.6484
34.0188
22.3711
27.8248
27.4313
32.9252
35.8764
28.5376
28.5099
36.3436
24.545
34.0139
22.5994
34.2485
30.5927
25.4358
15.8549
33.2676
27.883
26.1089
29.3013
21.851
35.3778
32.3534
30.7412
16.4043
37.3352
34.7837
36.6081
21.2214
32.5958
30.4401
19.1205
36.3411
26.0497
23.1924
38.6477
36.4403
30.7915
27.5555
36.3775
32.1393
15.602
32.9642
31.5809
20.269
21.9189
27.6791
15.9508
34.7038
17.3405
35.1532
28.394
26.938
39.4463
22.5038
25.9926
38.1587
34.1052
29.1623
20.5911
30.677
32.3901
26.2528
24.7777
25.8919
33.3442
25.5422
27.5344
37.1739
39.6127
24.4728
39.6799
36.2023
22.5106
35.4808
14.6075
16.9311
15.2111
28.9066
32.9113
29.7876
35.9744
23.4084
30.3297
19.2176
30.8515
26.6264
37.9554
40.7775
22.2134
37.9357
24.4519
35.3205
24.8812
21.2568
31.543
18.37
27.49
27.3306
31.3353
16.6462
35.5003
32.9658
14.9866
34.5622
25.5781
40.48
13.8971
39.9257
24.1402
27.3955
19.8793
17.435
23.8893
25.6969
34.5239
31.243
29.9438
28.4238
39.1486
26.7242
24.1565
38.603
41.1838
25.4157
15.9005
18.5538
21.7193
33.8915
14.1417
21.649
23.9536
26.7762
32.4201
33.2484
30.8848
34.8499
16.3932
40.7887
15.63
28.7303
17.6784
41.5088
21.8363
30.9245
19.6925
36.4149
39.1134
36.2652
25.3465
23.1467
26.1512
24.2678
15.1662
30.6931
16.1881
29.7524
26.3393
27.1981
17.1624
37.4126
37.5645
18.3908
14.4495
24.129
39.7326
20.3649
32.9273
34.3004
19.9499
15.4064
24.9298
20.2561
29.1098
16.5592
14.3695
28.956
17.1569
32.7157
25.4669
33.9021
34.9502
33.3377
28.9134
18.9361
31.495
20.7706
22.027
29.7728
17.6664
38.7879
37.811
34.7203
21.3844
26.32
16.0344
22.199
33.5907
25.4474
14.7287
16.9431
25.7494
23.3443
33.398
15.9042
17.9981
33.305
35.5351
26.2464
16.0135
41.153
26.3121
19.3183
29.9225
26.4828
17.0977
21.9811
21.6028
32.2405
14.9456
30.3661
17.7584
28.6596
27.6249
16.019
16.7215
43.7777
28.5116
18.4478
24.8925
32.3279
23.0047
31.4637
23.4269
23.4668
16.8893
31.9268
33.4494
15.3754
33.503
22.5631
22.8994
19.6951
23.3408
17.9534
15.9545
23.1901
38.4732
27.2787
19.0682
18.3627
16.6531
23.5303
31.7972
24.8248
32.831
29.5861
15.7795
20.2603
32.2522
46.4185
28.4897
37.6383
17.7029
19.1132
16.0203
29.7778
23.0501
18.6089
16.6557
24.8858
21.3774
32.2433
33.7618
33.3089
27.84
30.5042
33.3788
18.446
17.5789
19.1748
16.3378
23.7228
34.5717
23.503
19.0714
22.149
34.1069
20.3183
18.3076
42.857
16.8682
18.6587
27.4364
33.2025
22.7757
28.4674
17.5992
24.884
37.8251
17.4161
32.8731
19.6633
27.2796
28.0739
28.7539
20.8914
20.6271
17.4538
18.6154
34.1176
21.433
20.0794
33.8581
25.2636
34.2698
20.4317
26.2346
18.9631
26.0549
32.4803
17.7782
19.6828
23.2131
37.5714
18.7163
24.5124
21.1316
27.8146
21.0014
22.0296
29.7556
36.2461
18.7045
29.9932
29.0842
33.3255
21.0822
27.2364
30.2571
18.8212
26.0051
39.9801
22.4769
19.7277
21.4699
26.8625
40.8359
20.4814
25.0171
27.3659
19.237
23.6483
34.3405
33.6862
21.8285
33.6982
25.7636
22.3445
27.5953
34.1482
20.3093
22.7846
28.1387
19.9944
22.9983
31.9898
33.1516
37.1288
25.9192
20.6352
26.5359
20.6208
21.0932
24.9006
34.2517
25.7416
20.46
33.473
30.3561
29.6774
22.5771
22.6156
32.2514
30.2312
18.873
29.9545
35.4524
25.7847
20.9949
26.5707
47.2235
23.7579
26.5505
26.5664
35.1147
22.4269
38.8105
24.7893
33.3775
36.4874
24.492
21.5805
22.6929
27.8206
25.5984
33.0836
30.4913
32.8081
22.2343
25.2442
27.1723
34.4681
22.5814
22.22
36.9527
26.7099
31.5469
26.0042
20.992
25.4582
31.1932
22.5023
27.4743
34.907
32.5909
27.2416
33.509
37.4665
21.6786
25.2435
24.4433
31.6384
20.4493
33.163
27.6811
24.8932
31.3058
36.1995
34.1669
26.5623
28.6007
22.6308
28.2421
48.4005
37.8285
24.6125
25.6859
34.4883
25.2062
31.5296
21.9101
22.4802
32.4711
27.4215
35.4107
28.2949
36.6744
22.9475
31.9143
24.2564
34.7468
34.912
23.2139
28.6623
25.9615
24.518
26.7373
31.8163
38.8673
29.6014
23.3818
24.927
38.1702
22.2869
26.5933
28.0902
35.7856
36.1497
27.0613
29.2908
33.0463
27.1919
32.0034
24.3887
39.0826
34.2598
26.0788
22.5736
31.0052
23.478
35.9367
24.3336
18.0074
29.8856
32.6123
27.7035
25.3699
39.3676
27.939
35.3599
24.7311
23.0414
31.7347
33.3584
25.5464
31.9205
24.0367
35.9969
31.9679
31.3644
28.4002
40.4185
47.6422
32.8106
33.4462
30.9262
29.4856
24.1481
41.3334
24.9506
23.4682
23.659
36.3339
38.304
27.3344
25.208
26.0619
24.0905
28.6039
33.1936
33.1902
29.0045
42.7146
37.8438
34.4574
32.5064
26.8474
23.717
24.3276
41.1239
27.3322
25.895
28.9843
33.2118
40.7584
33.1401
20.324
38.2015
28.0176
27.1673
24.1127
27.8652
24.858
31.7204
29.2285
28.3967
27.7991
33.3846
33.08
41.2228
40.507
31.4542
36.9122
33.8385
24.4735
18.5062
33.5348
23.5824
29.3975
39.3435
42.5065
40.2449
34.6594
24.1144
29.2775
37.1235
23.6459
31.6838
33.8286
34.1174
27.9098
43.3246
42.5122
40.6452
39.8069
36.1024
44.2635
36.6462
26.3935
26.6678
34.2356
23.3201
27.1705
29.1556
32.1542
33.1043
28.6406
19.5899
25.4594
42.9902
40.1155
25.6611
24.0906
36.872
30.6395
32.8929
34.6367
43.8069
31.0521
43.5858
30.5197
31.3911
26.4731
40.778
40.4007
37.0754
34.6977
41.7735
21.4727
32.9224
21.9171
43.215
32.0861
48.4873
25.6641
37.2735
34.9693
23.7878
30.174
44.665
38.544
35.5979
30.7292
22.8656
45.48
42.2271
17.6621
34.9023
30.6474
38.6586
44.8309
38.2663
26.2496
35.0429
40.9677
44.7475
33.5672
37.5323
22.7816
24.6047
32.1551
29.0269
39.5609
29.9814
35.0646
32.0321
46.7548
26.6824
26.698
41.0991
25.1038
37.6411
30.753
35.3396
41.4748
28.9582
27.541
37.6416
23.7877
44.4086
35.3261
29.0231
31.184
18.0714
31.2754
21.7786
47.7621
40.868
37.6675
44.4603
35.4868
34.9872
29.8167
40.4202
17.0495
44.9296
37.3641
35.447
45.3166
41.0067
23.25
33.6134
45.5154
26.1753
37.3664
35.4832
29.352
28.4397
41.6318
33.6813
37.8078
25.3273
41.7595
35.406
42.6603
44.9853
46.2825
37.8134
27.8792
25.2174
43.8066
23.7278
26.0482
31.8546
35.4248
30.0803
38.6279
31.1286
25.058
46.5425
27.192
27.148
32.0979
35.2246
37.6908
43.0262
38.6324
45.3953
30.2744
46.1506
25.9171
35.2317
30.3325
18.0615
42.4563
34.7385
29.3543
26.004
38.1137
25.0896
33.7979
34.9855
27.6947
43.9666
34.22
45.0221
23.4385
21.1172
38.0055
45.443
35.0569
40.6348
25.8181
39.186
26.0137
45.869
53.8899
31.5672
34.6838
19.7452
31.8829
44.1902
34.0442
28.895
25.1339
36.7752
24.2495
39.0932
31.0196
45.2723
36.7654
34.6365
31.5464
43.0913
30.0673
20.7086
21.7888
38.0606
27.6932
26.0192
28.2792
29.4249
36.156
34.2936
30.8837
43.6579
34.2478
17.5793
35.9436
37.8756
45.373
51.8065
34.3743
24.022
29.2225
44.2927
35.906
30.6649
38.2352
21.4305
26.0138
28.6182
33.9543
34.8072
34.2277
45.0877
38.0754
27.886
33.0005
34.6537
24.5898
33.9477
28.2134
30.5026
33.5801
22.0203
44.2652
27.3218
23.7976
37.7473
21.6258
34.5578
17.3612
33.4624
36.7718
17.5144
34.2167
37.9965
29.0807
44.9691
34.4122
29.8929
37.4704
44.4333
21.5725
33.5445
31.8252
24.3997
35.9757
27.8275
37.4589
23.5393
32.0832
43.7941
43.0257
26.1971
39.6975
33.1736
45.6649
29.694
27.1058
25.1153
26.215
37.4509
23.8039
35.1439
29.1389
24.4816
36.6805
21.4579
36.5763
32.8926
27.2052
47.784
39.0847
29.2565
21.6394
23.6059
35.5567
38.9282
23.3125
34.7242
39.6136
32.0178
20.3602
47.6964
38.5939
49.5395
33.3261
28.1948
30.2145
38.2544
26.1596
25.484
43.5079
31.8498
26.505
18.4365
28.3395
46.6618
26.876
29.4593
37.8298
29.254
31.289
24.2304
36.7319
22.2935
21.5292
35.3548
41.0391
25.7509
28.3438
40.6747
23.5989
35.4974
43.1923
32.9201
37.4351
39.7206
20.0792
28.6548
43.4094
30.8788
24.4936
27.8022
39.5083
42.4353
41.5229
29.1817
40.6197
34.6266
34.3072
30.1597
27.9147
41.2769
28.5178
19.3863
39.893
24.8819
25.747
40.6694
23.548
33.8911
30.1787
28.6584
31.0231
39.756
32.6839
27.5841
20.4759
34.8006
39.8749
40.894
23.2668
36.0795
36.1821
28.1539
33.9634
25.5811
29.4588
38.0401
19.0579
37.118
32.6259
40.7079
24.4298
45.096
26.778
33.4726
41.1085
27.2174
29.0122
32.9794
26.6377
23.6558
46.6687
42.0095
19.8021
28.138
28.854
33.8042
23.898
29.1261
28.0645
33.4061
23.1497
28.6974
25.7489
29.9359
41.2555
33.5619
37.5027
25.4237
34.4365
32.8559
27.7742
36.1653
26.9514
49.2987
26.4943
30.2746
31.707
26.0977
40.3148
33.6103
35.4089
32.1255
17.5677
25.9836
27.8958
27.1401
39.7925
30.2477
31.8451
21.4422
31.667
20.7534
39.7541
19.8602
26.6382
26.6903
26.0812
25.7197
35.8507
47.5389
25.9959
33.4094
26.7477
31.5135
36.7688
41.1918
33.3293
24.4821
31.1965
32.2382
21.2295
28.3742
25.1753
34.0339
28.5616
18.2533
25.7124
18.5844
30.554
28.6184
24.8906
30.9283
25.6514
28.245
22.4013
38.518
28.8174
26.0726
25.0145
27.9968
31.3388
36.9484
30.1941
31.7845
36.2216
27.1733
20.8235
30.9713
35.8577
21.8856
24.7674
32.4286
26.3266
36.6787
26.6631
25.5542
18.1699
18.0483
31.5246
21.1654
21.6103
25.4863
27.2976
24.2379
27.2434
27.0635
24.2531
29.7798
23.6062
25.6042
34.6489
28.1014
31.4205
29.5217
21.9837
24.652
36.5158
31.3176
25.4305
31.189
25.5041
38.4469
28.311
23.0917
35.7782
24.9593
24.0591
30.1216
18.1792
19.6195
26.567
24.1654
19.0452
25.0932
37.1578
28.07
26.2005
29.6592
29.8508
31.1059
31.8241
22.8393
22.6948
21.791
24.3717
30.4648
28.1096
23.3043
27.3511
25.8589
29.9901
23.9272
23.3315
29.937
30.7295
23.6846
28.4626
21.8711
37.0735
30.3092
22.9362
22.2585
29.3505
18.5039
23.2047
34.4878
19.0529
27.6487
26.2676
24.4729
21.227
23.307
23.6623
33.2782
37.059
28.9021
28.3754
28.8308
22.7625
30.6589
23.126
29.3454
30.7714
21.8142
24.7162
20.7205
25.4851
23.7982
29.8009
36.5299
24.9388
28.2781
34.83
26.072
23.2767
25.8889
23.3275
28.7296
33.4999
22.3126
25.3209
22.5772
36.7555
35.5755
29.4821
26.7146
22.7583
25.0659
20.7291
30.4171
23.8795
21.7412
27.1084
28.9068
29.2709
36.045
30.8304
23.4287
24.9516
30.8397
22.6456
25.8346
41.4351
27.3629
29.3588
30.5835
28.9175
28.9982
34.0393
24.2342
22.6004
27.803
35.7193
25.5386
27.383
25.9476
28.3995
24.7593
30.594
36.4645
35.7321
23.0113
27.6689
29.5969
25.8862
38.018
30.5486
28.1755
28.8392
35.8226
43.2023
28.4439
22.7013
25.6338
35.4247
27.1549
30.6542
35.1137
26.3114
34.2348
35.2541
35.6683
28.6338
22.7769
41.6888
25.9994
31.5788
40.718
35.9786
29.2243
29.4086
22.5322
33.3224
38.9128
39.9019
29.7327
33.3078
29.6059
36.1712
42.4849
36.1812
22.8076
32.5563
34.6517
36.4283
36.7384
30.9612
23.0896
28.4852
33.0511
36.7977
40.8559
31.0732
35.8475
33.7805
23.8961
37.1186
28.6666
36.9165
39.866
37.3844
29.6196
23.8449
31.6082
39.0068
36.6312
30.1363
24.1306
36.6851
36.92
23.4559
32.1827
32.4402
35.7033
23.9496
31.6038
24.3988
SCALARS friction float 1
LOOKUP_TABLE default
7.90785
7.90624
8.09927
8.09183
7.86436
8.70483
8.18602
8.7682
7.96388
10.1917
8.88486
8.33957
10.6416
8.24509
10.5301
11.2591
9.85528
8.65613
9.22737
8.60267
9.11622
11.0724
8.5805
8.95963
12.0496
9.87986
8.72471
10.8671
10.3227
11.0074
9.7726
9.70854
9.20285
11.1326
8.92284
10.4732
9.88839
10.6851
11.9461
12.7151
9.52279
9.79403
12.2422
9.23809
9.05674
13.2821
10.1035
10.497
9.17552
9.90386
9.15942
9.65852
9.57607
13.5793
10.41
9.45816
10.2273
10.4919
9.2932
10.1588
10.157
10.6905
11.6358
9.98975
10.9707
10.851
11.3438
11.0973
10.4249
14.2489
11.02
11.0218
8.10684
10.4501
10.3353
11.2885
10.7547
12.2913
12.5799
10.7931
11.6168
10.5775
14.7167
11.2102
7.80443
10.5309
10.9945
10.9072
10.7569
10.594
11.9718
13.2633
10.6366
11.0703
14.7699
9.23304
10.7171
7.32561
12.4211
10.3288
10.5357
7.90458
11.3453
13.4795
11.8222
7.50277
10.601
11.7684
7.71407
14.3867
10.782
13.5766
7.57817
10.3736
7.77464
8.45388
8.86291
10.4963
10.3004
9.86633
12.1332
13.8079
12.3735
14.3052
7.93363
10.8495
13.2871
10.2645
8.25294