# vtk DataFile Version 3.0
File generated from DClib
ASCII

DATASET UNSTRUCTURED_GRID
POINTS 2394 float
75 0 0 
74.0132 0 0 
75 1 0 
74.0132 1 0 
73.0263 0 0 
75 2 0 
72.9355 1.08748 0 
73.9223 2.08748 0 
72.0395 0 0 
75 3 0 
72.8446 2.17496 0 
71.9486 1.08748 0 
73.9223 3.08748 0 
71.0526 0 0 
75 4 0 
72.8838 3.58748 0 
71.5238 2.50694 0 
70.6278 1.41947 0 
73.9615 4.5 0 
70.0658 0 0 
75 5 0 
71.563 3.91947 0 
72.9229 5 0 
69.641 1.41947 0 
70.203 2.83893 0 
73.9615 5.5 0 
69.0789 0 0 
75 6 0 
69.1476 2.44434 0 
72.9229 6 0 
71.6239 5.5 0 
70.2639 4.41947 0 
68.5855 1.02487 0 
73.9615 6.5 0 
68.0921 0 0 
75 7 0 
68.0921 2.04975 0 
72.9229 7 0 
71.6239 6.5 0 
68.6542 3.74338 0 
67.5987 1.02487 0 
73.9615 7.5 0 
70.3248 6 0 
67.1053 0 0 
75 8 0 
67.5987 3.34878 0 
67.1053 2.04975 0 
68.7151 5.32391 0 
73.0785 8.1 0 
66.6118 1.02487 0 
74.1171 8.6 0 
66.1184 0 0 
75 9 0 
66.6118 3.34878 0 
66.1184 2.04975 0 
71.6239 8.5 0 
67.1053 4.64782 0 
69.1755 7.15213 0 
70.3248 8 0 
73.2341 9.2 0 
65.625 1.02487 0 
74.1171 9.6 0 
67.5657 6.47604 0 
65.1316 0 0 
75 10 0 
65.1316 2.04975 0 
71.7795 9.6 0 
73.0785 10.1 0 
64.6382 1.02487 0 
65.1137 3.65591 0 
73.9615 10.5 0 
65.6071 4.95495 0 
68.0262 8.30425 0 
69.1755 9.15213 0 
64.1447 0 0 
66.0569 6.38442 0 
75 11 0 
71.6239 10.5 0 
70.3248 10 0 
64.1447 2.04975 0 
72.9229 11 0 
63.6513 1.02487 0 
64.1268 3.65591 0 
73.9615 11.5 0 
66.5173 8.21264 0 
63.1579 0 0 
75 12 0 
63.1579 2.04975 0 
64.1089 5.26208 0 
73.0785 12.1 0 
67.2259 9.58662 0 
68.3752 10.4345 0 
62.6645 1.02487 0 
64.5587 6.69155 0 
63.14 3.65591 0 
74.1171 12.6 0 
62.1711 0 0 
65.0085 8.12102 0 
70.3248 12 0 
71.6239 12.5 0 
62.1711 2.04975 0 
75 13 0 
65.717 9.495 0 
68.9358 11.8258 0 
62.6466 4.95495 0 
73.2341 13.2 0 
61.6776 1.02487 0 
63.0969 6.3615 0 
74.1171 13.6 0 
61.6776 3.34878 0 
61.1842 0 0 
66.4255 10.869 0 
63.5467 7.79097 0 
61.1842 2.04975 0 
71.7795 13.6 0 
75 14 0 
73.0785 14.1 0 
60.6908 1.02487 0 
63.9359 9.23812 0 
73.9615 14.5 0 
61.1842 4.64782 0 
66.9861 12.2603 0 
61.6346 6.05437 0 
60.6908 3.34878 0 
70.3248 14 0 
60.1974 0 0 
64.6444 10.6121 0 
71.6239 14.5 0 
62.085 7.46091 0 
60.1974 2.04975 0 
75 15 0 
68.9358 13.8258 0 
72.9229 15 0 
59.7039 1.02487 0 
65.5009 12.0501 0 
62.4741 8.90807 0 
73.9615 15.5 0 
67.5467 13.6516 0 
59.2105 0 0 
60.2109 5.66149 0 
62.8633 10.3552 0 
60.6613 7.06804 0 
75 16 0 
59.1118 1.8996 0 
66.0615 13.4414 0 
69.4963 15.2171 0 
73.0785 16.1 0 
63.7198 11.7932 0 
59.2712 4.40082 0 
61.0276 8.51671 0 
58.6184 0.874731 0 
58.7778 3.10178 0 
68.1073 15.0429 0 
74.1171 16.6 0 
70.3248 16 0 
58.2237 0 0 
71.6239 16.5 0 
64.5763 13.2312 0 
61.4167 9.96386 0 
75 17 0 
66.6221 14.8327 0 
58.0263 1.74946 0 
59.2376 6.67516 0 
62.2346 11.583 0 
73.2341 17.2 0 
57.6316 0.874731 0 
59.6039 8.12383 0 
57.6923 2.95164 0 
58.2979 5.41449 0 
68.6678 16.4342 0 
74.1171 17.6 0 
65.1369 14.6226 0 
63.0911 13.0211 0 
57.2368 0 0 
59.9702 9.5725 0 
71.7795 17.6 0 
57.1382 1.8996 0 
75 18 0 
67.1826 16.2241 0 
69.4963 17.2171 0 
60.8215 11.2716 0 
57.3582 4.15382 0 
73.0785 18.1 0 
56.7434 1.02487 0 
63.6517 14.4124 0 
56.8041 3.10178 0 
57.8154 6.75019 0 
58.376 8.14151 0 
65.6974 16.0139 0 
73.9615 18.5 0 
61.6059 12.8109 0 
70.3248 18 0 
56.25 0 0 
71.6239 18.5 0 
56.25 2.04975 0 
58.7423 9.59018 0 
56.8757 5.48952 0 
75 19 0 
59.3749 10.8802 0 
67.7432 17.6154 0 
72.9229 19 0 
64.2122 15.8037 0 
62.1665 14.2022 0 
55.7566 1.02487 0 
60.1928 12.4994 0 
66.258 17.4052 0 
68.5717 18.3983 0 
73.9615 19.5 0 
55.7563 3.4912 0 
55.2632 0 0 
56.3932 6.82522 0 
56.9538 8.21654 0 
62.727 15.5935 0 
55.2022 2.43916 0 
57.5143 9.60785 0 
75 20 0 
64.7728 17.195 0 
60.6813 13.992 0 
58.147 10.8979 0 
73.0785 20.1 0 
58.7796 12.188 0 
55.3905 5.27933 0 
54.7088 1.41428 0 
66.8186 18.7965 0 
70.3248 20 0 
74.1171 20.6 0 
63.2876 16.9848 0 
61.2418 15.3833 0 
69.1323 19.7896 0 
54.2763 0 0 
71.6239 20.5 0 
59.2681 13.6806 0 
65.3334 18.5863 0 
75 21 0 
54.1544 2.82857 0 
55.4686 8.00635 0 
54.908 6.61503 0 
56.0291 9.39767 0 
73.2341 21.2 0 
53.7219 1.41428 0 
56.5897 10.789 0 
61.8024 16.7746 0 
57.2224 12.079 0 
63.8482 18.3761 0 
59.7566 15.1731 0 
67.3791 20.1878 0 
74.1171 21.6 0 
53.7886 4.61671 0 
53.2895 0 0 
71.7795 21.6 0 
57.7829 13.4704 0 
53.2285 2.43916 0 
65.8939 19.9776 0 
75 22 0 
62.363 18.1659 0 
60.3172 16.5644 0 
73.0785 22.1 0 
52.7961 1.02487 0 
53.9834 7.79616 0 
54.5439 9.18748 0 
64.4087 19.7674 0 
58.2714 14.9629 0 
70.3248 22 0 
53.4228 6.40485 0 
73.9615 22.5 0 
55.1045 10.5788 0 
69.1323 21.7896 0 
52.7351 3.7382 0 
52.3026 0 0 
67.9397 21.5791 0 
55.6651 11.9701 0 
71.6239 22.5 0 
52.3026 2.04975 0 
60.8778 17.9557 0 
62.9235 19.5573 0 
58.832 16.3542 0 
75 23 0 
66.4545 21.3689 0 
56.2257 13.3614 0 
72.9229 23 0 
51.8092 1.02487 0 
52.3693 5.52633 0 
64.9693 21.1588 0 
51.8092 3.34878 0 
56.7862 14.7527 0 
73.9615 23.5 0 
61.4383 19.3471 0 
59.3926 17.7456 0 
51.4145 1.8996 0 
51.3158 0 0 
53.0587 8.97729 0 
52.4982 7.58597 0 
53.6193 10.3686 0 
71.2128 23.5672 0 
63.4841 20.9486 0 
54.1799 11.7599 0 
57.3468 16.1441 0 
75 24 0 
50.9211 0.874731 0 
51.3158 4.64782 0 
54.7405 13.1512 0 
72.5118 24.0672 0 
69.5776 23.6331 0 
50.9211 3.19864 0 
68.385 23.4226 0 
59.9531 19.1369 0 
61.9989 20.7384 0 
55.301 14.5426 0 
57.9074 17.5354 0 
51.4447 6.70746 0 
67.1321 23.2061 0 
50.5263 1.74946 0 
73.5504 24.5672 0 
50.3289 0 0 
65.6469 22.9959 0 
55.8616 15.9339 0 
75 25 0 
51.5735 8.7671 0 
52.1341 10.1584 0 
49.9342 0.874731 0 
52.6947 11.5497 0 
60.5137 20.5282 0 
58.4679 18.9267 0 
72.1008 25.1344 0 
53.2553 12.941 0 
49.8355 3.34878 0 
56.4222 17.3252 0 
53.8158 14.3324 0 
70.4655 25.2003 0 
73.5504 25.5672 0 
49.4408 1.8996 0 
49.3421 0 0 
63.815 23.2124 0 
59.0285 20.318 0 
49.9595 6.49727 0 
54.3764 15.7237 0 
61.0743 21.9195 0 
56.9827 18.7165 0 
75 26 0 
68.8303 25.2661 0 
49.3989 5.10595 0 
67.5774 25.0496 0 
48.8487 1.02487 0 
62.3298 23.0022 0 
50.6489 9.94823 0 
66.3246 24.8331 0 
50.0883 8.55691 0 
51.2095 11.3395 0 
54.937 17.115 0 
51.7701 12.7309 0 
72.4347 26.4726 0 
59.5891 21.7093 0 
57.5433 20.1078 0 
48.3553 0 0 
52.3306 14.1222 0 
48.3553 2.04975 0 
70.9797 26.4993 0 
55.4975 18.5063 0 
73.8843 26.9053 0 
75 27 0 
52.8912 15.5135 0 
47.8618 1.02487 0 
69.3444 26.5651 0 
64.4926 25.0496 0 
58.1039 21.4991 0 
47.9186 3.80692 0 
53.4518 16.9048 0 
68.3162 26.5651 0 
60.1497 23.1006 0 
56.0581 19.8976 0 
67.0633 26.3486 0 
49.1637 9.73804 0 
49.7243 11.1294 0 
47.3684 0 0 
48.6031 8.34672 0 
50.2849 12.5207 0 
47.3684 2.04975 0 
61.4051 24.1834 0 
66.035 26.3486 0 
48.0426 6.9554 0 
54.0123 18.2961 0 
50.8454 13.912 0 
72.7686 27.8107 0 
73.8843 27.9053 0 
75 28 0 
47.482 5.56409 0 
71.3136 27.8374 0 
62.6606 25.2661 0 
58.6645 22.8904 0 
51.406 15.3033 0 
56.6187 21.2889 0 
46.875 1.02487 0 
46.9318 3.80692 0 
69.8586 27.8642 0 
54.5729 19.6874 0 
51.9666 16.6946 0 
68.8303 27.8642 0 
46.3816 0 0 
64.203 26.5651 0 
46.3816 2.04975 0 
67.802 27.8642 0 
57.1793 22.6803 0 
52.5271 18.0859 0 
48.2391 10.9192 0 
59.6464 24.5 0 
47.6785 9.52785 0 
48.7997 12.3105 0 
72.856 28.9053 0 
75 29 0 
73.9717 29 0 
47.1179 8.13653 0 
66.7737 27.8642 0 
49.3602 13.7018 0 
71.8278 28.9053 0 
45.8882 1.02487 0 
60.9019 25.5828 0 
46.5574 6.74521 0 
49.9208 15.0931 0 
63.0719 26.7325 0 
70.3727 28.9321 0 
53.0877 19.4772 0 
65.7455 27.8642 0 
69.3444 28.9321 0 
62.1465 26.5651 0 
50.4814 16.4844 0 
58.1612 24.2899 0 
45.3947 0 0 
45.7749 5.05301 0 
45.3947 2.04975 0 
68.3162 28.9321 0 
54.7594 21.7738 0 
51.4788 18.4418 0 
64.6143 28.0315 0 
67.2879 28.9321 0 
45.2247 3.29583 0 
75 30 0 
73.9717 30 0 
72.9434 30 0 
44.9013 1.02487 0 
71.9152 30 0 
46.7539 10.709 0 
47.3145 12.1003 0 
66.2596 28.9321 0 
46.1933 9.31766 0 
70.8869 30 0 
47.875 13.4916 0 
52.0394 19.8331 0 
59.1432 25.8994 0 
55.3199 23.1651 0 
45.6327 7.92634 0 
69.8586 30 0 
48.4356 14.8829 0 
63.4832 28.1989 0 
65.2313 28.9321 0 
44.4079 0 0 
60.3877 26.8818 0 
53.2742 21.5636 0 
68.8303 30 0 
44.4079 2.04975 0 
62.5578 28.0315 0 
48.9962 16.2742 0 
56.4771 24.5037 0 
44.8502 6.23413 0 
67.802 30 0 
61.6323 27.8642 0 
44.2378 3.29583 0 
49.9936 18.2316 0 
64.1002 29.0994 0 
43.9145 1.02487 0 
66.7737 30 0 
59.3793 26.9231 0 
44.0678 4.54192 0 
50.991 20.1889 0 
60.6239 27.9055 0 
65.7455 30 0 
63.0719 29.0994 0 
57.4591 26.1133 0 
45.8292 11.8901 0 
45.2687 10.4988 0 
46.3898 13.2814 0 
43.4211 0 0 
52.2258 21.9194 0 
44.7081 9.10747 0 
43.4211 2.04975 0 
46.9504 14.6727 0 
62.1465 28.9321 0 
58.4385 27.0222 0 
64.7172 30 0 
44.1475 7.71616 0 
47.511 16.0641 0 
59.6155 27.9468 0 
43.251 3.29583 0 
53.4606 23.65 0 
63.6889 30 0 
42.9276 1.02487 0 
61.1182 28.9321 0 
48.0715 17.4554 0 
43.365 6.02395 0 
54.6178 24.9885 0 
49.069 19.4127 0 
62.6606 30 0 
58.6747 28.0459 0 
50.8222 21.6733 0 
42.4342 0 0 
60.1098 28.9734 0 
55.775 26.3271 0 
42.4342 2.04975 0 
52.057 23.4039 0 
56.7544 27.236 0 
44.344 11.6799 0 
49.6295 20.804 0 
44.9046 13.0712 0 
61.6323 30 0 
43.7834 10.2886 0 
45.4652 14.4625 0 
43.2228 8.89729 0 
57.7339 28.1449 0 
46.0258 15.8539 0 
59.1213 28.9734 0 
41.9408 1.02487 0 
42.6622 7.50598 0 
46.5863 17.2452 0 
60.604 30 0 
55.9067 27.3302 0 
52.3471 24.5393 0 
53.1846 25.3346 0 
47.1469 18.6365 0 
41.7707 4.59487 0 
56.8861 28.2391 0 
41.4474 0 0 
58.1804 29.0725 0 
50.6533 23.1578 0 
41.3487 1.8996 0 
59.6155 30 0 
54.3417 26.6731 0 
55.1468 27.4186 0 
47.7075 20.0278 0 
49.4607 22.2884 0 
57.2873 29.0725 0 
56.0384 28.3333 0 
43.4194 12.861 0 
42.8588 11.4697 0 
43.98 14.2524 0 
40.8553 0.874731 0 
58.627 30 0 
50.9434 24.2932 0 
40.9539 3.34878 0 
42.2982 10.0784 0 
44.5406 15.6437 0 
48.2681 21.4191 0 
41.7376 8.68711 0 
45.1011 17.035 0 
41.068 6.0769 0 
40.4605 0 0 
56.4396 29.1666 0 
55.2785 28.4216 0 
41.177 7.2958 0 
57.7339 30 0 
45.6617 18.4263 0 
40.2632 1.74946 0 
51.2336 25.4286 0 
52.071 26.2239 0 
52.9085 27.0192 0 
46.2223 19.8176 0 
49.2716 23.6764 0 
53.7135 27.7646 0 
55.6371 29.1666 0 
56.8408 30 0 
54.5186 28.51 0 
39.8684 0.874731 0 
[...]
POINT_DATA 2394
SCALARS cohesion float 1
LOOKUP_TABLE default
16.5655
16.6331
20.2339
20.095
15.5558
19.2719
20.1275
19.0198
15.8467
25.9693
17.9364
19.9699
27.5615
15.805
37.0356
33.7298
20.1139
19.9873
35.825
16.8716
30.9521
36.9954
31.591
20.707
24.0456
27.7007
15.6732
27.1753
20.9282
27.4464
27.186
37.9042
21.2167
30.7399
15.8644
35.1975
19.9017
35.8699
32.0183
40.844
22.2704
38.9754
27.0052
15.2464
41.5765
35.4503
20.8734
30.633
41.6159
23.4133
42.5348
16.3386
42.4936
39.204
20.6351
39.8588
39.2413
38.7247
39.6804
42.3303
24.6277
43.4806
38.4962
15.9423
43.286
23.4445
38.7444
41.5993
25.7273
45.3648
40.0124
39.9438
40.6375
34.6028
17.4521
42.2394
36.6437
38.7937
36.7418
24.2472
36.222
26.9783
45.4221
32.513
43.6001
16.8041
29.1774
26.0531
40.6793
27.4056
32.119
32.9029
28.185
47.7072
47.7727
26.2546
18.1598
45.6581
24.4723
24.5484
25.743
26.8565
31.8485
25.322
43.6789
26.2105
29.0563
49.3777
30.5508
45.0684
17.5439
31.3129
49.7042
27.9986
27.7223
36.729
36.7745
29.6795
33.2202
41.1995
45.7303
24.9267
46.3542
44.9149
34.4175
18.776
31.42
41.5539
54.7954
27.6011
38.5366
29.0014
38.2139
30.4412
27.037
34.9777
32.916
27.3361
18.1036
43.4452
30.0026
55.5189
28.8704
29.4922
26.1536
33.7868
28.092
30.315
45.3756
37.6509
29.2145
41.1982
34.1452
26.2396
25.8097
19.4056
24.1811
24.0987
29.8
25.154
34.8836
30.242
53.9443
32.5842
23.7182
29.2454
41.3044
36.9037
39.8902
21.1402
24.1998
36.4367
23.73
18.4929
29.1054
22.2963
29.2592
25.0247
22.4544
19.7519
32.0021
43.6726
25.3227
30.7136
34.6675
39.4386
51.8733
40.6236
22.9763
30.2038
23.2018
21.0638
19.1435
29.2675
28.4144
28.5723
39.7475
36.2565
30.1619
20.4882
37.0978
23.8963
33.7077
30.1088
25.7289
19.5132
25.4008
40.2594
43.1131
19.3106
50.1954
39.5972
24.6489
29.1239
28.7795
40.776
19.1224
30.5845
31.2331
41.0169
29.1662
36.2851
30.2503
29.5171
41.1075
39.1451
19.1733
26.0632
40.5211
20.9376
40.7561
27.4044
25.485
36.0845
34.142
41.5299
48.1717
31.3534
35.4385
29.4234
30.807
19.3184
29.8756
21.6943
28.508
41.6239
32.2719
36.5889
19.0736
33.1185
25.5472
27.7816
39.5607
29.8551
19.6316
20.2418
30.3526
28.3557
43.5856
34.4362
37.0698
30.0035
31.5165
44.7552
29.1502
30.3384
33.4595
37.8353
18.5009
34.5102
31.3356
31.0028
24.6397
18.3692
34.5579
20.6667
27.98
35.1769
23.0384
28.67
28.1832
36.0903
32.5131
36.0199
30.6874
27.3031
33.1203
18.7849
24.1894
17.4342
37.8073
46.3321
31.6148
29.6971
31.2255
31.8379
21.1035
26.1402
26.2452
31.5427
21.6655
27.6665
31.7133
32.4417
32.6682
31.7546
30.336
28.5727
19.0231
45.0732
32.2634
23.8452
27.5419
17.9473
30.4141
20.5764
27.4166
41.9126
33.9419
25.4493
32.7274
31.988
31.5398
28.1945
20.0673
33.1065
19.1841
26.4
29.1699
24.6762
21.9929
16.5756
25.5576
34.4905
44.0265
19.1463
23.6748
28.8406
22.7692
29.3134
32.7535
29.201
25.0325
22.8534
36.5695
27.543
44.5913
32.2877
18.5446
20.6107
22.6037
22.8416
36.6317
17.1282
22.6435
20.2943
23.5442
25.5892
21.0298
21.0184
18.7355
23.2499
24.7029
22.0112
23.3851
31.2227
17.5008
24.938
21.1501
38.6631
24.674
39.8133
32.4127
16.1027
45.7675
21.6071
20.4383
18.7983
23.1053
45.3152
21.8087
19.9417
20.2744
19.2115
19.1744
34.4513
21.4344
16.6088
21.2406
18.3808
23.4844
22.2351
30.5676
23.8188
37.2138
16.2929
24.7494
16.2773
20.1437
18.1584
26.4044
21.7141
19.4441
32.1051
16.9196
42.1585
23.2613
15.9331
15.7604
15.6013
43.8084
26.5771
18.1332
16.5226
21.5452
14.578
43.1756
19.3441
19.6906
17.7787
36.1962
27.4127
18.9308
17.6927
15.5753
17.8737
15.0927
31.6769
17.6243
20.15
18.726
22.3277
26.1099
21.2195
28.2162
15.412
15.2845
14.9908
20.7672
15.4187
31.1111
25.6711
22.0469
42.5424
15.7291
16.6661
32.76
14.4669
20.6397
40.4381
16.597
20.2091
25.6318
22.5684
15.6061
18.9395
17.9512
17.1008
16.6933
25.3093
16.946
18.6198
41.2116
18.0593
25.1621
27.6821
20.3256
22.6091
20.2357
18.4568
19.9782
29.7881
31.7888
24.8258
19.2514
23.0208
16.548
26.5414
30.4371
16.4683
14.8176
16.1797
41.5704
16.9182
20.8132
23.876
21.4252
19.3827
38.9317
18.0231
25.9568
27.9898
21.0715
19.9749
20.1117
24.848
19.0388
40.5807
18.3991
35.7766
19.9727
27.6051
16.1665
15.4968
26.1101
18.5761
16.151
19.7918
25.3123
28.2826
21.653
16.3275
20.7773
29.5153
22.1927
40.2721
29.1144
18.4786
27.4662
20.5437
37.6032
20.2772
20.9846
26.5223
18.7241
17.6586
30.4777
33.5105
30.5353
14.9682
28.9256
19.314
17.2647
22.2385
22.2389
27.7569
34.2691
17.5718
30.3849
31.7293
18.1685
28.1816
21.7874
20.7964
22.8351
18.8095
30.7885
30.3621
19.5201
18.3753
38.7204
21.2043
45.1035
16.1736
31.1652
32.1346
38.7107
24.1735
27.8878
18.0395
18.0428
19.9713
25.1503
40.0841
20.5526
28.6775
31.8962
24.5108
32.4227
21.5295
30.0911
20.1605
21.5606
20.8359
22.6797
28.4727
28.4559
20.7991
25.5007
31.7622
16.054
19.808
32.7226
30.9204
22.2686
18.4833
38.3455
24.5757
36.4991
21.6981
27.7215
25.3627
18.5287
49.8273
31.6597
25.4215
41.134
22.9691
32.2376
42.2934
34.765
22.298
25.9058
22.8906
24.8277
30.8596
31.7714
17.4612
19.0925
20.0075
22.8528
25.1726
23.1885
25.5922
30.5048
28.2128
22.7477
31.0723
27.7665
25.2239
22.9652
31.8247
22.645
20.6991
23.2853
25.6913
46.349
38.1058
29.8595
38.2437
40.8799
50.3922
30.6407
27.7655
20.7452
22.851
29.1705
25.1414
18.8716
25.9626
29.319
22.7969
22.9442
27.3613
21.5145
30.1884
24.6609
23.2471
25.0415
28.1751
23.643
23.0201
26.2
29.6831
29.7522
24.2534
26.4872
24.5769
20.8144
27.6447
22.8831
33.2477
38.3153
40.6546
29.136
21.6696
23.2995
41.2459
24.5337
21.3824
58.9595
27.613
29.7658
23.2875
26.8784
31.9377
25.9836
24.4902
23.0236
27.875
28.2924
24.1217
26.4913
27.5151
23.9634
23.095
24.0387
23.6009
27.2206
24.1619
27.5814
26.1925
25.4215
23.1472
28.5882
23.8887
23.9944
23.7553
32.3669
27.168
20.879
20.3124
24.2366
25.1023
26.2193
32.6921
23.2969
34.6442
23.6995
43.7422
26.4123
27.0016
22.9128
27.1069
24.9016
24.8915
33.834
22.8498
26.7252
23.4929
26.0876
25.2808
24.6512
24.3566
26.8262
23.5263
54.2369
28.6644
37.1399
23.2913
24.8197
23.2166
26.7296
25.2167
26.6376
23.9064
25.1348
23.1816
22.6173
25.3171
27.3449
19.7557
23.7482
25.4408
20.4512
23.0498
26.3109
22.8251
26.4618
29.8172
24.4825
23.8306
23.954
25.2424
23.4557
20.8012
23.5681
25.0836
23.3317
22.9019
26.0445
34.5252
25.5606
28.7846
23.6883
34.2026
22.8048
24.7187
22.7358
25.8344
34.9058
26.1797
26.1976
23.3825
25.508
25.6151
24.4082
22.6541
22.2122
36.3207
23.2615
23.1876
24.751
51.2397
24.1031
22.5396
22.3933
25.0662
23.0262
25.8471
23.8673
24.8095
22.4495
23.9724
26.1261
22.7921
24.7947
22.9148
19.1319
28.661
20.2647
22.3565
23.6338
25.7395
22.8589
24.5968
22.7251
25.0863
23.4027
22.28
43.0529
22.6327
21.9723
25.4844
22.2047
23.1909
28.2227
25.412
23.3892
23.7006
22.4739
24.771
24.2602
23.0182
22.1354
29.4545
22.3989
23.521
26.3948
21.995
36.461
25.2095
22.0644
25.3637
22.8167
23.8086
32.473
23.3598
22.2581
27.0547
23.9866
25.3295
35.0666
22.6691
22.0007
22.2032
26.7276
25.3769
24.4729
21.9386
22.509
24.7869
24.9468
23.1364
22.0914
23.7745
23.0414
21.8737
24.1401
22.402
23.0319
20.6679
22.044
24.3375
33.2843
24.0982
22.0072
21.8202
22.3033
56.8203
22.9638
21.9686
24.8829
23.1336
21.7593
22.2318
20.2055
24.6303
21.9339
19.4752
21.7202
22.166
23.6969
22.2142
21.8807
21.5955
22.3413
21.6779
26.9281
22.5341
21.5521
23.6098
21.8307
24.8577
21.6312
21.4575
21.9097
24.1088
22.4465
23.7576
21.59
21.8578
21.3711
21.3165
22.385
21.536
27.1417
23.2679
21.3228
21.7845
21.3483
24.8142
28.8949
22.5204
21.4831
25.3094
23.9391
21.2891
21.2019
21.7158
23.9939
21.1848
22.6478
21.408
21.1885
21.3541
21.7879
21.2072
23.7521
42.4773
21.3412
21.1119
32.4257
22.4535
30.6348
24.5659
21.1456
21.1307
21.7106
23.8745
21.0773
23.1482
26.0052
28.2948
21.0402
21.2517
29.6257
29.8907
22.2796
21.016
21.5582
20.9759
21.1658
21.0955
22.415
20.9172
21.6175
27.2061
24.4009
21.4497
20.8966
20.9711
23.6572
21.0624
21.8946
22.5726
22.4128
20.8646
20.8577
22.6591
21.5176
20.959
20.7588
23.2839
21.1803
63.577
20.7681
24.0872
24.4734
22.1952
21.5082
25.6522
32.6547
21.363
20.6829
20.9413
20.838
22.4817
23.5278
20.6482
21.8382
20.7399
20.5849
21.0856
24.0635
20.7225
21.5174
20.3656
20.644
23.346
29.0135
20.5384
21.9785
20.4875
23.8469
21.0436
20.9158
20.5903
22.2943
20.5645
20.4084
22.1934
20.6659
20.3933
20.9832
23.5119
21.2241
20.4401
20.4693
25.9552
22.202
20.2801
49.3434
21.7692
20.3159
23.908
38.3873
20.7555
21.6351
20.2936
23.65
23.4426
26.9493
28.1278
20.1446
20.2031
20.8514
21.3853
25.908
26.6602
20.4946
35.9197
20.1317
20.4335
22.8683
20.0094
22.6367
20.0992
21.3565
22.0857
20.2618
20.4001
21.0477
25.9483
19.9543
19.8736
23.0019
29.4153
25.4096
25.3664
21.204
20.0019
23.5222
31.7478
23.1886
21.3901
39.9482
20.1767
20.377
19.806
21.9218
19.7656
23.2034
19.8452
23.9435
25.8326
22.9829
22.8049
28.4413
21.0085
19.9196
19.6497
21.5805
19.6398
19.7803
21.7959
20.5567
22.7759
20.9875
20.8046
20.6784
19.7433
22.7224
19.5006
23.3184
19.5165
70.7038
44.8287
19.7911
23.7378
30.2054
22.8607
20.9073
41.7202
24.6762
19.5312
20.3175
19.3591
19.4542
22.2311
19.8086
27.6618
28.218
21.2315
19.3782
19.2768
20.0314
29.5913
19.3809
25.529
19.9408
33.5457
27.0077
28.8756
22.3387
22.9525
26.8802
21.3509
22.4319
20.2716
24.2965
33.9278
17.0284
18.716
23.1557
19.1869
19.2484
19.4163
26.2901
20.254
19.7257
22.4638
67.8976
21.9302
21.8168
19.1366
19.555
20.6119
25.4474
19.1798
19.5204
21.5758
50.6682
28.6652
40.6944
22.0371
21.4677
22.6311
38.409
23.2469
19.8458
21.1132
22.1029
19.1774
24.6536
39.3693
19.1634
19.3313
29.7889
22.1118
19.3507
17.0543
22.1207
34.9862
21.6977
20.3091
26.0684
29.9848
28.6453
19.2984
34.5995
19.2276
30.2249
25.1317
19.4114
22.5019
23.1733
21.5676
24.9376
68.0658
20.802
25.0897
22.0357
20.9938
22.4158
26.4135
24.7145
19.7468
19.3271
24.9521
19.5555
23.5845
36.6426
44.9121
22.524
20.5677
22.8309
36.1649
21.7046
20.2744
23.0208
20.4616
16.268
21.878
55.9692
21.182
19.6218
25.2218
19.6499
33.8976
30.1412
22.7688
23.4478
22.4648
31.7347
20.1172
21.4739
25.0304
31.7493
32.002
27.9062
23.7629
20.204
19.9714
30.096
21.9804
23.5505
25.8289
75.4074
23.7818
23.0494
32.182
22.6685
19.5491
16.5839
19.6275
21.1451
22.9053
32.7697
27.97
47.9662
24.1229
20.3698
43.272
25.4626
23.6
20.3569
52.5723
32.225
22.185
23.4204
22.4434
38.2261
23.1407
25.1272
22.7643
22.4445
27.9217
41.1089
24.3585
43.6358
21.0976
24.6546
26.8769
27.3865
20.5377
24.2977
20.624
16.0465
27.8924
23.9563
23.6599
33.2268
24.744
23.6588
26.6568
24.8295
24.826
22.3137
29.2778
25.9549
73.6472
39.1912
52.3749
25.2935
25.3374
47.7691
28.5987
33.9993
31.1521
38.741
20.3021
43.164
24.5085
50.8458
24.6407
26.4432
43.4279
40.0687
27.9745
24.6762
23.8467
39.3247
20.0295
30.0945
26.1063
16.5294
21.8204
27.3241
26.24
37.5432
23.0186
25.523
25.0166
31.5773
25.0207
38.2352
24.589
25.7679
29.7335
22.3549
25.7127
23.1883
24.712
27.2186
32.0386
20.4731
59.7977
26.2013
49.2416
58.5258
37.5542
37.8774
31.4029
42.5486
26.2626
54.3908
21.224
31.2457
16.0366
27.5322
35.2096
25.576
41.8586
25.4762
29.7054
24.0715
46.5377
34.8862
37.2471
25.7942
28.0131
34.2893
38.4476
30.2224
26.2137
44.9423
32.343
34.2151
27.0974
19.0139
25.7356
47.0545
26.9614
26.0979
32.2267
23.4749
40.585
25.8036
30.2501
23.5133
30.3808
30.1739
20.824
17.0466
45.2284
62.4378
57.2849
46.3361
28.8222
25.5101
33.2196
32.2054
51.0835
45.2454
34.8013
38.4954
50.281
25.1369
36.9087
18.8554
32.4149
27.4895
41.7396
26.8717
41.2738
26.074
30.963
26.4315
41.8043
34.687
21.2306
26.0065
40.0759
41.2407
27.6396
41.1331
24.6926
33.8675
29.2085
32.6895
38.9262
36.2094
22.3057
29.8332
16.9999
24.2602
50.2669
37.3506
51.134
24.2118
33.1051
27.8923
45.2567
60.5342
35.8728
34.1637
39.2786
45.1039
25.3592
45.735
46.1313
21.1319
31.9078
33.993
42.8332
27.3867
40.159
49.2277
38.7776
34.4471
36.3803
19.1768
39.833
30.2865
39.692
27.1104
46.1182
38.47
46.4802
28.4123
33.0932
44.7498
34.3474
22.1121
22.7667
18.6878
49.2643
41.246
32.025
35.1935
36.6319
24.7578
59.1593
31.9756
42.2458
23.8708
37.2567
39.9755
48.6033
35.2155
30.7528
40.6766
30.232
44.5652
36.4337
47.5365
38.3337
28.3118
24.8433
40.5015
39.8944
39.4472
39.1557
47.5252
42.0258
39.7043
35.365
46.9016
33.702
37.6263
17.7516
43.6578
27.5854
48.4504
51.4721
37.6486
60.7135
43.6546
39.8288
34.2153
30.9315
31.3174
21.892
41.7372
44.6774
23.411
35.7496
18.1604
41.8069
22.8891
48.6464
39.0324
36.2626
29.7825
34.9465
46.3041
53.3035
31.6383
39.1964
42.43
41.0629
33.0326
47.6989
39.1971
27.1672
46.9667
29.8058
36.6598
38.6602
40.1863
41.6959
41.372
54.3796
40.8493
46.3852
32.6737
41.8803
37.8003
32.453
21.8388
25.8523
47.3426
47.6457
17.3958
35.3721
28.21
42.9263
52.1778
44.2322
42.8664
39.7603
38.5947
23.0949
34.7589
69.3818
46.0728
38.1783
41.0982
19.4637
21.5355
38.5824
40.2766
31.126
47.0968
34.2635
34.2011
43.5757
43.5172
35.8372
36.0548
38.9436
42.8886
51.0923
39.1966
28.4001
42.8598
40.3184
38.2142
28.1901
46.8509
30.8503
43.2108
43.3509
39.3255
36.0359
39.9393
27.2296
38.55
34.6466
69.5496
40.6195
42.2941
44.0914
46.5069
42.6462
42.9607
32.0134
36.4585
21.7869
27.9899
39.0109
38.1569
47.5165
41.2397
31.6566
24.675
40.9528
41.2626
20.3738
25.1476
42.9
35.8168
17.6292
42.9894
53.3523
47.0487
44.6486
21.5655
35.2379
38.376
38.0126
39.8354
41.3638
38.3379
42.6102
37.6473
36.6485
28.6968
35.3817
41.9616
42.8632
39.9463
57.4075
40.0484
49.1561
32.3694
27.4514
38.1066
40.1968
36.3602
42.4453
29.7324
27.7649
42.4922
37.0949
43.6353
29.1754
40.2014
41.1573
66.3228
37.3475
37.2754
40.5323
22.2376
40.5744
42.8857
25.8453
44.0156
42.878
37.3812
37.6873
24.4432
42.2012
27.836
39.3397
46.5994
43.9563
30.9551
43.02
39.393
36.6581
39.1389
42.314
51.5432
42.7649
42.5173
37.2894
33.9141
37.7657
43.4392
42.7196
36.9066
37.4742
39.2464
40.299
42.4031
71.02
43.2503
34.5035
34.2651
43.7685
37.8364
46.4502
25.5491
24.1852
36.978
32.0561
34.865
24.8729
37.6631
40.616
42.6211
37.2748
43.5622
31.2896
51.8183
43.7187
37.1534
43.6596
37.7258
25.5391
46.426
29.2831
40.8377
40.9041
43.8505
44.1054
39.6771
57.9287
32.3167
35.8795
38.4114
35.0071
18.4913
32.2434
44.1217
44.1918
35.984
22.8573
37.7135
43.4355
28.9234
44.3387
26.8491
38.9499
40.1724
39.6531
44.7921
45.8059
43.706
38.235
60.8523
26.1241
44.9779
42.0533
38.624
45.9352
44.9538
39.3203
35.2374
32.0037
28.138
46.0947
43.2544
45.3237
57.7462
38.5666
39.411
29.6416
42.4149
30.8931
45.2619
29.9053
45.264
42.5834
45.5834
25.4837
45.6183
61.5328
39.9299
45.738
43.1362
33.1931
37.8183
36.985
32.1329
38.4438
43.5201
46.0157
40.4377
45.831
24.9556
46.1303
44.5082
35.5559
40.4085
46.5768
46.3162
42.2657
44.2162
36.0371
43.1799
40.5893
43.4232
46.9544
46.4914
31.8726
31.9361
43.9826
21.8218
47.0835
47.8666
49.3328
47.0482
43.1965
52.2273
41.1655
47.5368
32.3179
33.7925
42.725
44.2278
43.453
35.4605
47.2697
25.6175
47.4104
33.7422
54.8279
41.8497
41.9447
29.3918
29.731
47.973
52.1575
43.9524
47.8063
21.5806
35.0664
42.6895
29.8575
48.3845
50.2204
39.1806
44.9562
29.5106
33.5129
28.756
48.7662
30.6568
55.5999
49.148
29.4246
44.2114
31.3801
45.5977
50.8353
41.3349
49.3656
43.5597
49.3916
59.8535
34.4835
48.9293
44.6068
45.4914
18.5273
37.0151
50.5136
41.9543
34.5555
44.538
55.8953
42.0449
36.2926
32.5728
30.1338
49.6272
24.3439
47.0596
33.9589
51.0166
56.0696
46.0673
31.1192
50.3653
32.717
51.0306
27.3931
46.6293
29.0885
27.9395
38.1286
51.6264
32.9483
45.8639
57.2835
33.7733
26.6699
51.5383
48.385
17.7961
51.667
58.5725
31.8523
45.6471
53.4318
38.5764
51.6776
45.7991
45.6611
44.8619
52.4839
35.525
58.1076
49.2514
52.006
44.5235
27.2279
26.8514
30.0355
52.707
47.1207
29.2259
29.5974
36.6819
46.1046
26.2225
31.6544
28.2229
54.5859
30.0653
36.6631
53.4494
42.6301
29.1067
58.4225
52.2391
33.7966
49.7678
24.3768
37.3141
27.7075
46.1311
42.1004
53.354
33.3682
47.5994
34.8488
51.06
52.7954
53.8607
30.3022
22.8861
52.3772
31.6826
41.5546
53.6641
45.6788
48.0112
26.8854
42.6231
31.5686
52.2086
40.8303
54.9259
26.1012
26.565
30.3098
46.6721
22.2664
53.5869
33.3077
44.9114
32.3748
36.8012
33.6063
33.7871
38.3558
50.201
43.5602
55.1424
32.9868
54.6012
34.4607
44.3265
25.2586
20.4026
32.9642
44.2738
29.7985
49.6257
45.0021
25.603
48.3791
54.4457
28.629
35.8829
36.2295
42.9086
33.0203
28.9585
48.8587
36.5011
53.967
24.8207
26.0563
35.6138
26.1849
23.7513
52.2546
40.4936
44.1367
29.1439
49.1152
30.2661
42.7726
36.8774
48.3089
41.1415
23.6072
49.8979
22.5069
52.9997
26.3847
27.9793
26.0319
47.1255
41.8564
40.9754
42.6477
49.0974
28.8986
51.7971
27.1647
47.2669
35.2183
38.0164
30.896
40.799
43.8713
41.8086
31.5742
48.3821
50.3087
43.6722
37.3341
49.3939
20.8631
43.4072
22.4997
28.1383
25.8989
40.9359
25.2091
28.1372
26.3031
28.5291
47.0488
23.6746
49.8024
41.836
30.1121
29.9372
30.9144
40.0182
40.3703
23.2876
37.0836
45.7814
32.053
34.5618
49.0293
50.2052
38.7525
40.5004
43.1043
38.39
22.2396
28.3727
37.4498
43.9713
45.9523
34.9877
48.6017
48.7274
25.7597
27.42
42.6214
32.2566
38.5316
32.7044
36.6317
22.6426
29.0171
43.0241
47.7233
27.6948
34.1453
21.0015
33.4615
48.055
29.5377
28.3115
38.2876
42.4014
28.777
42.1464
30.8116
38.2023
48.8487
47.1632
49.9858
33.4334
32.0651
25.7249
41.3632
28.7109
38.5544
20.3813
28.7669
46.2317
46.9081
34.0935
42.3878
21.0315
46.7952
30.7569
32.0315
39.1797
30.5844
40.3642
24.4434
43.7302
45.5142
29.0912
26.949
35.3596
45.6177
36.5323
35.8887
23.4301
45.1927
38.3688
39.4684
37.883
30.4267
45.2098
28.5335
54.8914
25.5543
43.4149
23.0578
31.7315
43.92
33.6888
26.4813
27.4287
37.2576
36.3009
47.3534
35.6216
25.4535
31.3895
23.9366
28.3736
43.39
36.4995
41.0428
48.3628
37.5206
30.5901
22.2865
30.9422
35.235
41.9575
27.9167
42.2875
27.8203
30.1695
36.3458
32.6373
41.7079
28.0794
45.5778
46.6557
40.1728
34.8632
40.4987
49.0719
25.3243
31.9147
43.142
30.3317
29.0625
34.7947
34.238
21.32
59.5526
43.4842
40.6217
43.1135
27.7394
36.3046
26.0142
38.6625
50.5709
32.3483
24.8988
29.7423
39.9144
49.3446
32.4993
34.7822
34.2714
36.6892
44.4277
42.8302
37.0011
25.2034
31.5991
40.917
27.2991
27.143
49.9363
34.2872
31.092
40.1427
29.3573
32.6504
32.2598
46.5671
39.7959
39.9858
38.0447
34.3918
41.4195
32.7688
33.5472
33.0599
40.2842
22.5372
24.5527
36.9588
48.1124
40.4059
30.2866
28.5021
32.8291
31.3588
36.0499
31.226
33.012
48.7302
42.7725
44.9259
39.638
53.6774
34.9305
42.8713
30.1968
36.5693
23.9768
34.3987
36.6831
37.7134
31.7349
32.0021
31.9995
34.5283
35.5609
46.4013
37.7967
50.4861
36.8874
36.3074
45.9737
44.9105
40.6671
36.6634
30.3095
35.8948
37.9217
28.02
38.8286
23.4567
34.8474
34.6082
44.6323
24.1629
29.3591
34.7261
42.6799
38.9031
27.9928
35.3287
36.4024
30.5131
25.3668
44.8112
54.5156
35.3971
37.528
43.5224
29.9347
28.7468
35.228
28.6711
31.1401
27.2126
25.1717
40.1389
42.7729
30.2367
24.0345
38.843
31.0917
33.0278
27.6742
33.9685
28.0512
30.0673
25.5791
38.8619
28.9499
31.2274
23.386
26.5269
32.5025
27.05
33.9493
28.755
50.1259
32.7835
30.6459
33.928
22.8993
31.3644
25.6243
31.0821
26.8817
25.5193
26.287
22.2912
33.3476
32.272
24.4405
30.9031
29.5498
31.1961
31.8009
35.4871
23.5275
23.5136
30.2784
24.0225
28.1642
29.7428
26.9743
44.7445
22.727
30.981
35.6502
29.0091
23.2238
24.9326
25.0861
27.8763
34.365
34.4357
28.5093
27.3503
25.4034
22.6959
39.89
30.3293
25.8696
22.0956
27.2409
33.1221
26.2497
33.5088
21.7867
26.6035
27.4667
39.2957
26.9705
32.8199
21.5319
29.9711
26.0821
22.0121
26.1891
SCALARS friction float 1
LOOKUP_TABLE default
14.2613
14.4305
11.4517
11.2428
15.3873
8.70558
11.1325
8.71016
15.4
8.88881
8.82435
11.085
8.75285
16.7684
7.20111
7.95214
8.86389
9.97325
6.29801
16.9064
6.51115
7.03059
5.95882
10.0818
9.13931
6.70424
17.0308
6.62167
8.4949
6.25263
6.16147
5.82572
11.7986
6.091
16.0842
5.99285
8.45651
5.99004
5.98546
6.66585
12.02
5.7855
5.91092
16.7101
5.86669
7.48535
8.45571
5.37039
5.43362
11.9817
5.07834
16.4489
4.97297
6.81997
8.66937
4.94449
4.96611
5.42313
5.44785
4.72315
11.9408
5.27633
4.84795
16.7784
6.52278
8.4933
4.78906
6.81247
11.994
5.83655
9.29825
4.4115
5.66341
4.63467
16.0962
4.45903
11.7951
10.2832
6.24346
8.11612
12.6585
11.92
5.88135
12.9619
5.59345
16.3249
12.2658
8.31299
3.89383
11.8791
5.20149
9.23625
11.6926
4.20434
5.40742
10.8381
15.6067
6.00454
11.5534
11.0089
8.29597
9.82766
5.55592
11.5454
3.91145
9.31979
11.5864
3.75069
9.32964
5.89419
15.3975
11.8725
5.81231
8.10162
9.13358
9.57493
9.80904
11.353
5.85781
10.1771
3.90906
10.0827
3.51978
5.99675
8.90967
14.4954
10.7765
10.3409
5.2894