# vtk DataFile Version 3.0
File generated from DClib
ASCII

DATASET UNSTRUCTURED_GRID
POINTS 2394 float
75 0 0 
74.0132 0 0 
75 1 0 
74.0132 1 0 
73.0263 0 0 
75 2 0 
72.9355 1.08748 0 
73.9223 2.08748 0 
72.0395 0 0 
75 3 0 
72.8446 2.17496 0 
71.9486 1.08748 0 
73.9223 3.08748 0 
71.0526 0 0 
75 4 0 
72.8838 3.58748 0 
71.5238 2.50694 0 
70.6278 1.41947 0 
73.9615 4.5 0 
70.0658 0 0 
75 5 0 
71.563 3.91947 0 
72.9229 5 0 
69.641 1.41947 0 
70.203 2.83893 0 
73.9615 5.5 0 
69.0789 0 0 
75 6 0 
69.1476 2.44434 0 
72.9229 6 0 
71.6239 5.5 0 
70.2639 4.41947 0 
68.5855 1.02487 0 
73.9615 6.5 0 
68.0921 0 0 
75 7 0 
68.0921 2.04975 0 
72.9229 7 0 
71.6239 6.5 0 
68.6542 3.74338 0 
67.5987 1.02487 0 
73.9615 7.5 0 
70.3248 6 0 
67.1053 0 0 
75 8 0 
67.5987 3.34878 0 
67.1053 2.04975 0 
68.7151 5.32391 0 
73.0785 8.1 0 
66.6118 1.02487 0 
74.1171 8.6 0 
66.1184 0 0 
75 9 0 
66.6118 3.34878 0 
66.1184 2.04975 0 
71.6239 8.5 0 
67.1053 4.64782 0 
69.1755 7.15213 0 
70.3248 8 0 
73.2341 9.2 0 
65.625 1.02487 0 
74.1171 9.6 0 
67.5657 6.47604 0 
65.1316 0 0 
75 10 0 
65.1316 2.04975 0 
71.7795 9.6 0 
73.0785 10.1 0 
64.6382 1.02487 0 
65.1137 3.65591 0 
73.9615 10.5 0 
65.6071 4.95495 0 
68.0262 8.30425 0 
69.1755 9.15213 0 
64.1447 0 0 
66.0569 6.38442 0 
75 11 0 
71.6239 10.5 0 
70.3248 10 0 
64.1447 2.04975 0 
72.9229 11 0 
63.6513 1.02487 0 
64.1268 3.65591 0 
73.9615 11.5 0 
66.5173 8.21264 0 
63.1579 0 0 
75 12 0 
63.1579 2.04975 0 
64.1089 5.26208 0 
73.0785 12.1 0 
67.2259 9.58662 0 
68.3752 10.4345 0 
62.6645 1.02487 0 
64.5587 6.69155 0 
63.14 3.65591 0 
74.1171 12.6 0 
62.1711 0 0 
65.0085 8.12102 0 
70.3248 12 0 
71.6239 12.5 0 
62.1711 2.04975 0 
75 13 0 
65.717 9.495 0 
68.9358 11.8258 0 
62.6466 4.95495 0 
73.2341 13.2 0 
61.6776 1.02487 0 
63.0969 6.3615 0 
74.1171 13.6 0 
61.6776 3.34878 0 
61.1842 0 0 
66.4255 10.869 0 
63.5467 7.79097 0 
61.1842 2.04975 0 
71.7795 13.6 0 
75 14 0 
73.0785 14.1 0 
60.6908 1.02487 0 
63.9359 9.23812 0 
73.9615 14.5 0 
61.1842 4.64782 0 
66.9861 12.2603 0 
61.6346 6.05437 0 
60.6908 3.34878 0 
70.3248 14 0 
60.1974 0 0 
64.6444 10.6121 0 
71.6239 14.5 0 
62.085 7.46091 0 
60.1974 2.04975 0 
75 15 0 
68.9358 13.8258 0 
72.9229 15 0 
59.7039 1.02487 0 
65.5009 12.0501 0 
62.4741 8.90807 0 
73.9615 15.5 0 
67.5467 13.6516 0 
59.2105 0 0 
60.2109 5.66149 0 
62.8633 10.3552 0 
60.6613 7.06804 0 
75 16 0 
59.1118 1.8996 0 
66.0615 13.4414 0 
69.4963 15.2171 0 
73.0785 16.1 0 
63.7198 11.7932 0 
59.2712 4.40082 0 
61.0276 8.51671 0 
58.6184 0.874731 0 
58.7778 3.10178 0 
68.1073 15.0429 0 
74.1171 16.6 0 
70.3248 16 0 
58.2237 0 0 
71.6239 16.5 0 
64.5763 13.2312 0 
61.4167 9.96386 0 
75 17 0 
66.6221 14.8327 0 
58.0263 1.74946 0 
59.2376 6.67516 0 
62.2346 11.583 0 
73.2341 17.2 0 
57.6316 0.874731 0 
59.6039 8.12383 0 
57.6923 2.95164 0 
58.2979 5.41449 0 
68.6678 16.4342 0 
74.1171 17.6 0 
65.1369 14.6226 0 
63.0911 13.0211 0 
57.2368 0 0 
59.9702 9.5725 0 
71.7795 17.6 0 
57.1382 1.8996 0 
75 18 0 
67.1826 16.2241 0 
69.4963 17.2171 0 
60.8215 11.2716 0 
57.3582 4.15382 0 
73.0785 18.1 0 
56.7434 1.02487 0 
63.6517 14.4124 0 
56.8041 3.10178 0 
57.8154 6.75019 0 
58.376 8.14151 0 
65.6974 16.0139 0 
73.9615 18.5 0 
61.6059 12.8109 0 
70.3248 18 0 
56.25 0 0 
71.6239 18.5 0 
56.25 2.04975 0 
58.7423 9.59018 0 
56.8757 5.48952 0 
75 19 0 
59.3749 10.8802 0 
67.7432 17.6154 0 
72.9229 19 0 
64.2122 15.8037 0 
62.1665 14.2022 0 
55.7566 1.02487 0 
60.1928 12.4994 0 
66.258 17.4052 0 
68.5717 18.3983 0 
73.9615 19.5 0 
55.7563 3.4912 0 
55.2632 0 0 
56.3932 6.82522 0 
56.9538 8.21654 0 
62.727 15.5935 0 
55.2022 2.43916 0 
57.5143 9.60785 0 
75 20 0 
64.7728 17.195 0 
60.6813 13.992 0 
58.147 10.8979 0 
73.0785 20.1 0 
58.7796 12.188 0 
55.3905 5.27933 0 
54.7088 1.41428 0 
66.8186 18.7965 0 
70.3248 20 0 
74.1171 20.6 0 
63.2876 16.9848 0 
61.2418 15.3833 0 
69.1323 19.7896 0 
54.2763 0 0 
71.6239 20.5 0 
59.2681 13.6806 0 
65.3334 18.5863 0 
75 21 0 
54.1544 2.82857 0 
55.4686 8.00635 0 
54.908 6.61503 0 
56.0291 9.39767 0 
73.2341 21.2 0 
53.7219 1.41428 0 
56.5897 10.789 0 
61.8024 16.7746 0 
57.2224 12.079 0 
63.8482 18.3761 0 
59.7566 15.1731 0 
67.3791 20.1878 0 
74.1171 21.6 0 
53.7886 4.61671 0 
53.2895 0 0 
71.7795 21.6 0 
57.7829 13.4704 0 
53.2285 2.43916 0 
65.8939 19.9776 0 
75 22 0 
62.363 18.1659 0 
60.3172 16.5644 0 
73.0785 22.1 0 
52.7961 1.02487 0 
53.9834 7.79616 0 
54.5439 9.18748 0 
64.4087 19.7674 0 
58.2714 14.9629 0 
70.3248 22 0 
53.4228 6.40485 0 
73.9615 22.5 0 
55.1045 10.5788 0 
69.1323 21.7896 0 
52.7351 3.7382 0 
52.3026 0 0 
67.9397 21.5791 0 
55.6651 11.9701 0 
71.6239 22.5 0 
52.3026 2.04975 0 
60.8778 17.9557 0 
62.9235 19.5573 0 
58.832 16.3542 0 
75 23 0 
66.4545 21.3689 0 
56.2257 13.3614 0 
72.9229 23 0 
51.8092 1.02487 0 
52.3693 5.52633 0 
64.9693 21.1588 0 
51.8092 3.34878 0 
56.7862 14.7527 0 
73.9615 23.5 0 
61.4383 19.3471 0 
59.3926 17.7456 0 
51.4145 1.8996 0 
51.3158 0 0 
53.0587 8.97729 0 
52.4982 7.58597 0 
53.6193 10.3686 0 
71.2128 23.5672 0 
63.4841 20.9486 0 
54.1799 11.7599 0 
57.3468 16.1441 0 
75 24 0 
50.9211 0.874731 0 
51.3158 4.64782 0 
54.7405 13.1512 0 
72.5118 24.0672 0 
69.5776 23.6331 0 
50.9211 3.19864 0 
68.385 23.4226 0 
59.9531 19.1369 0 
61.9989 20.7384 0 
55.301 14.5426 0 
57.9074 17.5354 0 
51.4447 6.70746 0 
67.1321 23.2061 0 
50.5263 1.74946 0 
73.5504 24.5672 0 
50.3289 0 0 
65.6469 22.9959 0 
55.8616 15.9339 0 
75 25 0 
51.5735 8.7671 0 
52.1341 10.1584 0 
49.9342 0.874731 0 
52.6947 11.5497 0 
60.5137 20.5282 0 
58.4679 18.9267 0 
72.1008 25.1344 0 
53.2553 12.941 0 
49.8355 3.34878 0 
56.4222 17.3252 0 
53.8158 14.3324 0 
70.4655 25.2003 0 
73.5504 25.5672 0 
49.4408 1.8996 0 
49.3421 0 0 
63.815 23.2124 0 
59.0285 20.318 0 
49.9595 6.49727 0 
54.3764 15.7237 0 
61.0743 21.9195 0 
56.9827 18.7165 0 
75 26 0 
68.8303 25.2661 0 
49.3989 5.10595 0 
67.5774 25.0496 0 
48.8487 1.02487 0 
62.3298 23.0022 0 
50.6489 9.94823 0 
66.3246 24.8331 0 
50.0883 8.55691 0 
51.2095 11.3395 0 
54.937 17.115 0 
51.7701 12.7309 0 
72.4347 26.4726 0 
59.5891 21.7093 0 
57.5433 20.1078 0 
48.3553 0 0 
52.3306 14.1222 0 
48.3553 2.04975 0 
70.9797 26.4993 0 
55.4975 18.5063 0 
73.8843 26.9053 0 
75 27 0 
52.8912 15.5135 0 
47.8618 1.02487 0 
69.3444 26.5651 0 
64.4926 25.0496 0 
58.1039 21.4991 0 
47.9186 3.80692 0 
53.4518 16.9048 0 
68.3162 26.5651 0 
60.1497 23.1006 0 
56.0581 19.8976 0 
67.0633 26.3486 0 
49.1637 9.73804 0 
49.7243 11.1294 0 
47.3684 0 0 
48.6031 8.34672 0 
50.2849 12.5207 0 
47.3684 2.04975 0 
61.4051 24.1834 0 
66.035 26.3486 0 
48.0426 6.9554 0 
54.0123 18.2961 0 
50.8454 13.912 0 
72.7686 27.8107 0 
73.8843 27.9053 0 
75 28 0 
47.482 5.56409 0 
71.3136 27.8374 0 
62.6606 25.2661 0 
58.6645 22.8904 0 
51.406 15.3033 0 
56.6187 21.2889 0 
46.875 1.02487 0 
46.9318 3.80692 0 
69.8586 27.8642 0 
54.5729 19.6874 0 
51.9666 16.6946 0 
68.8303 27.8642 0 
46.3816 0 0 
64.203 26.5651 0 
46.3816 2.04975 0 
67.802 27.8642 0 
57.1793 22.6803 0 
52.5271 18.0859 0 
48.2391 10.9192 0 
59.6464 24.5 0 
47.6785 9.52785 0 
48.7997 12.3105 0 
72.856 28.9053 0 
75 29 0 
73.9717 29 0 
47.1179 8.13653 0 
66.7737 27.8642 0 
49.3602 13.7018 0 
71.8278 28.9053 0 
45.8882 1.02487 0 
60.9019 25.5828 0 
46.5574 6.74521 0 
49.9208 15.0931 0 
63.0719 26.7325 0 
70.3727 28.9321 0 
53.0877 19.4772 0 
65.7455 27.8642 0 
69.3444 28.9321 0 
62.1465 26.5651 0 
50.4814 16.4844 0 
58.1612 24.2899 0 
45.3947 0 0 
45.7749 5.05301 0 
45.3947 2.04975 0 
68.3162 28.9321 0 
54.7594 21.7738 0 
51.4788 18.4418 0 
64.6143 28.0315 0 
67.2879 28.9321 0 
45.2247 3.29583 0 
75 30 0 
73.9717 30 0 
72.9434 30 0 
44.9013 1.02487 0 
71.9152 30 0 
46.7539 10.709 0 
47.3145 12.1003 0 
66.2596 28.9321 0 
46.1933 9.31766 0 
70.8869 30 0 
47.875 13.4916 0 
52.0394 19.8331 0 
59.1432 25.8994 0 
55.3199 23.1651 0 
45.6327 7.92634 0 
69.8586 30 0 
48.4356 14.8829 0 
63.4832 28.1989 0 
65.2313 28.9321 0 
44.4079 0 0 
60.3877 26.8818 0 
53.2742 21.5636 0 
68.8303 30 0 
44.4079 2.04975 0 
62.5578 28.0315 0 
48.9962 16.2742 0 
56.4771 24.5037 0 
44.8502 6.23413 0 
67.802 30 0 
61.6323 27.8642 0 
44.2378 3.29583 0 
49.9936 18.2316 0 
64.1002 29.0994 0 
43.9145 1.02487 0 
66.7737 30 0 
59.3793 26.9231 0 
44.0678 4.54192 0 
50.991 20.1889 0 
60.6239 27.9055 0 
65.7455 30 0 
63.0719 29.0994 0 
57.4591 26.1133 0 
45.8292 11.8901 0 
45.2687 10.4988 0 
46.3898 13.2814 0 
43.4211 0 0 
52.2258 21.9194 0 
44.7081 9.10747 0 
43.4211 2.04975 0 
46.9504 14.6727 0 
62.1465 28.9321 0 
58.4385 27.0222 0 
64.7172 30 0 
44.1475 7.71616 0 
47.511 16.0641 0 
59.6155 27.9468 0 
43.251 3.29583 0 
53.4606 23.65 0 
63.6889 30 0 
42.9276 1.02487 0 
61.1182 28.9321 0 
48.0715 17.4554 0 
43.365 6.02395 0 
54.6178 24.9885 0 
49.069 19.4127 0 
62.6606 30 0 
58.6747 28.0459 0 
50.8222 21.6733 0 
42.4342 0 0 
60.1098 28.9734 0 
55.775 26.3271 0 
42.4342 2.04975 0 
52.057 23.4039 0 
56.7544 27.236 0 
44.344 11.6799 0 
49.6295 20.804 0 
44.9046 13.0712 0 
61.6323 30 0 
43.7834 10.2886 0 
45.4652 14.4625 0 
43.2228 8.89729 0 
57.7339 28.1449 0 
46.0258 15.8539 0 
59.1213 28.9734 0 
41.9408 1.02487 0 
42.6622 7.50598 0 
46.5863 17.2452 0 
60.604 30 0 
55.9067 27.3302 0 
52.3471 24.5393 0 
53.1846 25.3346 0 
47.1469 18.6365 0 
41.7707 4.59487 0 
56.8861 28.2391 0 
41.4474 0 0 
58.1804 29.0725 0 
50.6533 23.1578 0 
41.3487 1.8996 0 
59.6155 30 0 
54.3417 26.6731 0 
55.1468 27.4186 0 
47.7075 20.0278 0 
49.4607 22.2884 0 
57.2873 29.0725 0 
56.0384 28.3333 0 
43.4194 12.861 0 
42.8588 11.4697 0 
43.98 14.2524 0 
40.8553 0.874731 0 
58.627 30 0 
50.9434 24.2932 0 
40.9539 3.34878 0 
42.2982 10.0784 0 
44.5406 15.6437 0 
48.2681 21.4191 0 
41.7376 8.68711 0 
45.1011 17.035 0 
41.068 6.0769 0 
40.4605 0 0 
56.4396 29.1666 0 
55.2785 28.4216 0 
41.177 7.2958 0 
57.7339 30 0 
45.6617 18.4263 0 
40.2632 1.74946 0 
51.2336 25.4286 0 
52.071 26.2239 0 
52.9085 27.0192 0 
46.2223 19.8176 0 
49.2716 23.6764 0 
53.7135 27.7646 0 
55.6371 29.1666 0 
56.8408 30 0 
54.5186 28.51 0 
39.8684 0.874731 0 
[...]
POINT_DATA 2394
SCALARS cohesion float 1
LOOKUP_TABLE default
57.3739
58.1464
55.27
56.1109
61.2988
55.1047
56.9606
56.7346
60.6654
48.9207
57.8387
57.6911
48.7612
61.1913
46.2573
47.0713
53.8894
56.9103
49.2227
59.6066
49.6637
45.7643
50.9421
55.978
48.5329
51.1952
61.0626
50.5541
52.5988
51.6433
51.517
44.9843
55.9567
45.8041
59.954
39.629
55.9805
38.6016
44.3039
40.8249
54.7492
35.2601
51.0055
60.9681
31.767
41.4673
54.9501
47.6974
32.2434
53.7867
32.6595
58.2542
33.2118
41.0283
55.6982
32.1479
42.0479
35.3295
30.075
33.385
52.8191
32.5601
41.0738
58.6783
30.7197
53.8118
33.3584
30.5545
51.5654
40.4402
29.1404
44.6914
26.4335
31.4349
55.4517
42.1994
29.7844
28.7223
29.1058
54.435
30.1555
49.9258
40.9144
33.1325
26.4565
55.0481
35.8557
52.0065
47.1739
35.4487
31.48
28.9021
47.7426
40.6365
41.3428
31.8726
51.1502
26.3471
36.8185
33.9618
51.1739
27.7716
30.9172
38.239
45.2426
25.897
44.9615
44.3934
22.9054
40.8101
49.483
31.0322
28.7354
47.0383
22.2502
21.9708
22.3113
41.6967
30.5477
24.1167
42.3907
40.2246
46.541
38.9984
21.5932
45.2606
31.6206
25.475
30.7471
44.3255
25.3041
22.7313
25.4902
37.8753
42.3419
29.4966
24.0411
23.4129
43.0307
42.6654
31.6188
33.7777
21.3654
38.7112
25.574
23.7417
20.8707
43.097
37.634
27.4271
34.4343
34.0891
25.9392
21.2434
20.447
38.9063
20.29
28.611
32.7401
22.6092
27.0398
33.7545
34.7729
44.3751
21.9862
31.5292
25.692
31.8583
36.3491
17.2503
21.9546
29.1587
32.9977
37.2416
30.4588
21.2945
31.732
20.5645
18.6401
19.0627
40.2968
31.7617
19.4099
28.8056
29.9378
28.8575
29.0733
24.0467
20.4325
18.0246
35.9856
17.4758
34.7103
15.7056
29.823
29.8866
32.4857
17.5608
37.5679
19.3121
16.0259
23.8793
30.7684
27.1098
41.47
19.3064
15.2718
17.1322
27.0309
33.1401
25.1336
22.2661
28.7087
27.637
29.1401
18.4153
19.5638
31.5135
38.3852
18.173
46.8446
29.8598
25.3278
14.5066
17.4455
18.8331
20.5312
33.6066
17.0127
31.4034
17.921
30.3439
15.5643
19.4035
25.0833
21.0607
23.8365
26.5276
18.7182
24.4427
37.9536
21.6143
45.8925
16.7149
39.2892
18.4891
17.0202
28.9643
32.1564
16.5299
31.4898
25.2995
18.6487
15.8566
18.1872
23.0825
15.2396
24.7173
20.1921
24.6602
18.1035
40.5793
15.1494
24.0218
16.2344
36.5684
16.1345
26.2862
32.4186
17.0254
45.9354
15.4683
24.8647
20.1149
17.4606
25.9683
18.1052
18.0369
30.3591
17.5605
24.3903
27.8081
19.8031
24.4537
40.4722
18.9031
16.8974
21.7507
24.1124
33.0807
22.9693
19.75
34.3353
17.5373
21.5615
44.5458
27.4535
19.3137
25.1067
31.0275
30.3306
18.4814
16.2908
23.8821
15.842
17.1677
23.3132
35.5757
23.6103
20.7539
15.1315
23.2483
19.0628
32.594
14.8908
29.7075
21.2143
21.1954
32.2252
24.9431
43.5945
22.8887
17.7002
19.1629
30.9064
23.8215
24.2489
30.2521
18.4979
22.6402
22.4706
33.5376
14.6879
23.4657
21.4625
30.0342
15.7925
18.6865
25.5252
18.6796
28.8274
17.7737
23.8602
14.1702
29.1402
16.9747
19.8291
40.7958
23.5311
31.3
30.0176
16.9692
23.2494
32.8037
25.4432
20.8748
28.777
18.8847
35.0917
37.2786
28.9667
23.7833
27.7804
19.4146
19.5126
24.025
21.3974
27.1401
14.3007
23.7759
25.5577
25.9996
39.5748
33.1066
18.7341
33.8214
19.3254
16.1895
25.7757
18.9223
19.047
22.4559
36.037
34.5573
33.5481
26.1467
33.7302
21.8444
14.2027
28.5068
22.1033
23.301
23.0299
31.0338
23.4271
20.0421
29.0067
32.6786
28.9464
18.9605
28.2727
14.9872
18.1069
36.9356
18.5602
23.1222
36.9081
31.5783
33.8164
33.0132
18.4347
27.524
22.7549
29.7895
22.4134
27.6922
18.6872
27.6751
34.7666
27.4292
20.2939
27.7247
25.9595
31.8925
19.7419
18.4473
33.5521
27.0054
18.7456
24.4961
20.9177
17.6428
24.5511
23.398
19.4509
44.4876
43.926
46.0919
21.8487
43.9729
34.3486
40.8862
22.6578
20.2493
44.9841
24.8389
24.0131
32.2103
15.6647
17.4282
41.1136
29.5417
22.6043
22.6159
32.5844
36.7227
26.4715
41.1591
18.039
26.1982
20.8387
19.9637
20.5691
37.8907
30.2696
18.367
16.7376
24.155
21.2852
38.5811
40.1444
26.4001
26.7188
29.1897
36.135
24.6742
35.488
43.0696
30.5759
30.1234
32.8877
21.9622
18.7486
17.3228
30.7246
24.0502
38.3601
36.135
16.6579
23.5089
28.7463
18.3636
15.6972
33.8471
20.6668
25.0166
18.3964
21.6488
24.8976
19.962
35.9939
28.2181
22.928
31.5284
26.0736
35.5514
16.6243
18.6337
36.5991
42.6605
28.2764
35.3141
35.8508
26.1687
31.7794
17.1295
27.4794
28.1583
26.6812
19.9845
16.3138
19.8025
36.5743
34.8132
22.1041
29.7932
17.2731
25.7709
26.3615
31.4085
27.0704
20.2033
16.1478
35.1107
32.7267
33.9256
25.6141
21.4424
27.2398
25.3237
40.6293
38.9094
31.0363
20.3013
35.5098
18.6964
17.878
21.9658
31.6134
25.5903
15.969
19.9051
21.7237
29.5996
27.2969
24.4144
16.4054
34.075
17.3646
15.8365
32.3606
29.384
31.3499
23.3859
19.883
29.1912
26.9879
33.6233
23.1067
19.5519
16.8731
21.1793
25.933
43.4356
28.6118
33.8163
25.9676
33.0526
32.2419
27.0583
29.7477
24.9757
24.368
18.4259
20.0343
15.4742
15.5895
16.3621
25.754
27.0545
25.9553
31.664
28.542
22.4305
26.5923
31.5107
16.6642
17.8539
24.862
21.5771
17.3114
21.3669
30.4481
19.2397
25.5143
26.318
24.5978
28.5001
15.3761
29.9031
27.4532
43.0808
31.0271
30.4319
26.1584
30.0494
19.7913
25.0151
23.3684
28.387
28.8774
16.7367
15.2736
24.958
17.344
30.1015
25.3966
19.5981
26.1568
15.6204
19.1858
18.513
25.7995
24.4869
30.2832
24.0447
23.6785
29.921
28.493
20.4766
25.8214
15.8058
20.2382
24.1768
24.743
25.8052
24.5927
29.1327
29.6095
26.2566
15.7711
25.7368
28.7223
26.3224
44.1275
19.4179
27.5288
29.9737
14.137
26.362
23.8389
16.0925
17.0174
16.6584
26.5638
28.9429
28.1985
24.3217
29.6154
27.0111
22.3666
26.0879
16.4234
31.7095
26.5836
22.0032
18.6345
23.3019
18.6331
19.4533
26.0117
29.9498
26.8997
26.4782
16.0054
28.3959
29.7031
24.0825
26.76
25.3142
26.4372
26.3765
27.6322
24.5794
25.7341
28.4823
21.0425
29.7312
42.9149
26.4595
13.9783
27.9002
17.237
27.6978
26.1961
15.809
30.7856
16.7678
29.6218
17.6651
22.9642
26.6918
24.2429
27.105
26.0809
27.8438
20.778
27.2161
27.2886
29.7419
27.0838
17.4679
27.8891
27.4825
27.2832
17.8888
26.3497
18.5977
22.4172
29.8327
26.4306
24.7497
27.4432
27.3261
27.8271
28.5378
22.4772
29.8799
25.4929
27.306
19.3035
27.7052
28.6486
27.3365
17.8567
29.8797
27.5223
25.9837
28.0333
23.9434
22.8528
28.4292
25.9095
27.3329
31.9647
14.3773
25.3752
27.493
27.1342
29.917
27.5527
43.3427
25.5337
15.4974
28.457
17.7984
24.72
27.5922
30.048
27.5717
21.1884
27.8851
18.048
28.6893
27.9122
23.3322
27.7005
30.0224
24.3064
22.3517
28.7135
18.2208
27.3327
19.9932
27.7911
30.0537
24.4742
27.5737
28.8887
27.7145
27.9362
27.8352
30.0167
26.4759
21.0319
25.9489
27.5717
28.8956
28.9655
18.9212
19.3449
30.0289
28.0199
27.9868
25.2334
27.5729
29.0089
27.5808
28.1365
30.0036
30.4971
29.0148
24.031
28.3064
30.0137
28.2098
18.5101
27.7186
25.6199
27.7937
29.1167
27.7044
27.5126
28.3028
29.9695
22.7186
29.0955
27.8423
18.7853
23.7316
19.2404
27.6416
29.9677
35.6273
28.392
26.6677
38.394
27.8864
29.1956
24.0132
27.499
27.8753
24.0813
28.4677
29.9344
29.1643
20.18
28.7156
25.6675
29.9181
28.5368
15.8918
27.9304
27.9046
29.2397
27.4802
25.7589
29.8948
25.3377
28.5896
27.8929
15.8083
29.21
27.3813
22.2205
19.5499
23.4898
29.8763
28.6153
21.6371
27.8948
29.2232
27.4339
27.7115
29.8665
28.6219
28.9299
27.7291
29.1654
21.2365
29.815
28.6126
27.3852
24.736
29.1617
30.4604
28.3112
29.7566
19.9707
28.033
30.3843
27.3424
29.1119
27.4839
29.6828
31.048
28.8332
27.2739
27.9948
27.27
29.6175
28.7709
31.2214
31.9661
27.9373
29.5656
21.1433
24.5282
31.1786
28.726
30.6241
27.6287
19.2302
27.6898
29.4975
19.8186
27.1463
30.5702
32.8418
28.657
27.3483
32.2724
27.4427
29.4507
31.7104
22.876
28.3689
30.6393
27.046
21.0528
29.3844
31.7888
26.723
27.4519
21.8648
27.4079
30.6042
33.7709
28.3006
27.0409
33.3561
26.3865
28.345
43.2621
31.8997
29.3295
20.3977
33.4921
27.4454
33.4489
28.318
31.3432
29.287
34.1434
27.1971
32.6465
29.651
20.0509
27.3821
28.2607
31.3195
33.9669
26.8977
29.2561
23.9816
26.974
24.9095
30.7981
33.4436
29.8808
27.9338
29.2231
32.917
26.7113
33.2834
27.2766
30.7837
27.449
21.4432
27.042
23.7873
21.7644
24.039
27.9047
32.404
33.8041
29.2127
16.8455
26.8413
30.9637
27.1296
33.9574
32.6034
28.0551
28.5056
29.2179
31.6572
16.4512
33.8376
20.9319
20.1263
31.0005
26.8098
32.8053
26.953
32.902
28.0831
29.2599
24.3536
33.8629
31.254
26.5651
33.7274
33.0327
27.6659
26.7276
23.6658
29.3213
33.8871
30.315
28.2397
31.3295
21.1534
26.639
33.3555
28.7128
20.5953
27.7376
30.0056
29.4433
28.27
26.8115
28.0279
21.1442
31.6845
33.5706
32.2999
26.7299
28.5711
23.3415
27.9668
41.5633
29.5907
33.2912
24.7793
31.9077
25.1776
33.7498
26.6084
27.3787
28.1569
32.9758
23.7776
29.598
29.8582
32.344
22.3233
21.3457
22.8599
22.3397
30.371
33.7803
28.9618
24.2581
26.9018
26.5931
29.4438
27.985
32.5516
30.2046
17.6343
32.6584
22.6037
33.8561
21.8299
29.048
26.8873
23.4948
22.3017
26.6348
28.3364
30.6911
31.2328
33.161
33.6274
26.9009
29.6185
24.5681
24.7276
30.0976
26.822
28.6249
26.8558
31.3072
21.9948
33.4735
21.7989
21.3204
33.3135
29.5309
23.1797
22.1352
29.1575
32.3122
23.0426
29.2722
27.089
32.1115
33.7692
23.6381
32.636
31.4994
27.8512
27.8958
29.8547
33.0492
27.6133
21.865
33.7167
30.8819
32.4088
23.5075
23.5288
23.5183
27.0369
21.6022
22.3553
26.0298
25.0735
32.1587
30.4423
25.7849
29.3199
14.8583
21.4963
33.8636
30.8488
33.4653
32.1639
31.0295
28.1311
22.0039
28.3932
27.3491
24.2956
34.6355
33.0632
29.4346
23.9178
31.9266
28.7606
21.1493
21.8183
30.4773
20.5924
23.3853
27.2914
21.3227
25.6862
21.6717
32.0143
27.5223
27.8004
34.7697
30.1987
38.4196
33.2866
29.9935
22.8088
22.5224
34.1659
31.526
25.653
20.5907
25.6475
30.6652
28.6586
21.5858
23.3747
34.8564
29.5489
34.3739
22.0643
34.5604
31.7381
21.2676
21.7243
20.9086
25.039
23.9466
28.0149
19.4677
24.021
28.5549
22.0216
31.4688
21.4335
33.7132
35.3254
29.8436
33.3387
29.0852
23.8511
20.5533
22.9145
29.428
21.9753
23.0104
26.6753
34.0444
21.7559
32.2228
34.3665
20.9519
34.6639
26.6329
35.3983
22.9978
35.2615
21.2267
22.6982
22.5543
22.043
24.6053
29.8232
30.3011
29.4677
26.3821
20.0396
24.278
27.5368
28.1739
34.3243
36.9817
28.3793
21.1802
22.4994
30.7611
29.9673
21.8749
23.6337
29.0058
26.7235
36.0411
35.4746
17.1269
32.0946
21.749
22.0597
24.4656
23.3871
22.6162
38.1353
20.9432
34.8488
23.0514
32.5507
24.4971
24.945
27.0007
24.7646
26.1619
29.5528
21.2529
27.7775
21.6155
29.033
23.7521
20.8204
22.663
24.487
34.4369
23.1356
24.1462
34.6171
35.9121
23.6089
35.9625
38.695
29.0088
21.6319
26.1575
24.5245
22.6436
22.062
23.4338
37.2552
22.8084
31.03
25.71
23.1236
33.4446
21.6571
26.7557
23.6732
29.2906
20.572
29.4896
21.5936
24.8773
26.6776
31.7185
20.5661
24.3387
33.0357
21.9666
29.5099
27.8499
16.8349
23.8896
22.5343
26.6341
22.429
38.6084
25.2726
23.788
41.0349
33.0028
36.3964
22.4453
25.1644
25.2061
23.8399
38.9124
29.1666
22.5132
23.904
24.3024
30.9734
24.473
21.8204
23.1452
27.6909
26.2512
22.8195
25.5357
36.4461
29.8845
23.6919
24.1296
35.2252
20.3508
31.5253
31.0925
20.8615
22.5413
28.7539
38.846
24.9548
45.6432
25.8583
23.5995
23.8499
23.3216
22.7722
23.8889
24.5649
27.9388
27.5765
28.2625
23.0132
22.8859
26.8492
24.5417
33.7128
32.8894
26.298
25.5867
24.08
25.1776
32.7048
41.4725
31.0472
22.6609
23.7872
24.9032
22.8437
21.2248
22.6021
23.8605
24.5187
27.7217
29.3132
41.996
48.3091
29.4198
32.1746
38.4185
20.9956
22.9833
22.4904
25.4797
32.487
21.6908
25.5479
33.2358
35.7602
28.9732
23.6383
26.4936
26.0315
24.8705
22.6174
20.856
34.9159
21.9033
43.8272
23.9417
38.724
31.4391
26.2311
26.5933
22.258
36.0237
30.0125
26.0046
26.1805
22.2971
25.8818
23.1755
26.2311
31.7326
36.517
42.4114
27.9422
54.4977
22.2156
23.4835
26.4313
29.3421
24.0251
25.2848
22.5373
25.7258
39.2985
26.3073
35.4818
24.4857
32.3414
21.8533
23.065
30.9525
23.4001
24.4096
36.3336
21.1395
36.7975
26.8045
35.3049
36.0928
25.9811
20.7898
27.6105
41.7295
23.4691
23.2194
44.565
27.9695
26.5165
21.9877
33.2116
25.4548
26.195
34.7719
45.959
21.0809
57.5449
24.0524
37.777
26.8356
35.1691
26.32
21.7707
36.0419
24.8003
26.4146
20.7487
35.8365
28.9165
24.9334
25.9894
30.814
34.8338
23.1931
34.2014
33.9628
22.6247
27.093
38.8096
22.3956
40.3246
26.5002
21.9177
30.302
35.1417
29.9505
37.4895
34.4127
25.5359
25.5471
28.0004
27.9376
21.9686
47.2571
23.4428
27.8595
26.3917
27.7612
22.1515
33.4321
34.5836
27.2763
24.7106
20.3333
38.1701
26.0145
45.5246
23.6382
61.6606
35.2952
21.0309
24.1877
33.8492
25.9599
22.8211
34.8001
22.0026
36.4241
28.3379
29.5212
26.227
33.2354
25.3967
24.6573
34.022
19.8464
22.615
41.1943
35.8512
26.5103
26.2562
22.805
33.161
29.4485
30.1504
25.0579
31.7749
38.5024
34.1781
27.3565
20.5361
22.9851
37.1348
23.0215
26.3549
34.7612
21.8254
22.6399
41.0121
38.8744
33.2546
31.5985
25.0322
47.8581
33.8216
30.1446
25.0363
34.0722
23.8554
60.185
20.4303
36.5553
22.4517
41.4483
23.0897
35.9656
25.5157
22.4652
33.3231
34.1705
18.9452
24.384
36.823
33.4594
30.1049
57.2177
25.5557
33.779
36.2065
31.3137
23.1204
42.8224
22.4474
33.1809
23.7312
33.8379
37.0605
20.7477
28.8143
22.8079
33.9134
33.6245
35.8808
38.6118
23.9141
32.9577
22.5181
24.6298
33.5112
19.7126
23.871
23.8786
27.3356
31.6115
37.589
31.6173
47.1731
34.0724
33.3969
63.1465
23.1654
37.4878
33.5873
26.0311
32.8009
34.0773
25.0309
22.4937
20.7616
33.5369
23.8273
27.4396
32.4462
33.1746
35.5301
36.6611
26.8619
37.7584
60.375
22.6563
37.5444
32.617
36.8025
32.9219
33.1173
47.293
43.5457
22.251
28.0876
32.9661
33.1531
36.2598
23.1052
29.9972
37.4698
34.3044
32.4499
44.4327
32.8762
22.5585
45.2469
26.1373
26.7055
33.5061
59.475
25.5073
36.5396
19.696
32.3228
37.4381
34.2042
32.5156
48.7799
32.4544
21.0253
31.3297
36.1651
32.1024
62.2213
36.6697
35.2118
32.5342
32.3602
36.8253
37.6507
22.6146
32.2448
29.1223
43.4721
36.8331
31.8847
35.5925
32.9875
32.1755
34.6809
32.0045
36.4902
35.9737
31.8863
25.4917
34.51
31.6801
26.7097
40.9203
18.9931
56.8672
32.6805
29.8882
28.7601
37.8105
31.88
31.7529
47.6565
28.2359
31.6695
24.6978
50.1141
31.4862
31.9284
36.4032
33.0275
47.6072
23.1969
31.0687
34.8597
31.4731
31.409
31.2726
31.3742
37.3034
22.7107
52.9383
31.1885
42.9081
23.8257
23.7479
31.1824
31.072
26.6613
21.9313
31.7759
31.1161
31.0848
35.9754
18.4475
32.671
30.9846
47.525
30.8743
24.0003
30.9542
31.1884
39.7029
63.5027
30.706
30.7644
31.1369
36.3623
30.6983
29.4521
42.4447
30.524
46.3797
45.9164
32.9544
30.5631
46.5632
31.5878
23.6214
55.4087
30.5894
22.1283
30.5317
23.952
30.4343
30.2718
35.3503
35.9829
30.4068
49.2229
30.6668
30.2774
24.5235
46.1003
45.9396
25.2449
31.8426
30.623
30.2301
30.2816
30.3243
30.1317
24.0061
22.2777
30.1289
47.641
30.2833
30.1063
30.0188
32.6556
30.0331
61.394
42.7954
30.5501
31.7816
29.9976
29.9391
20.8428
42.6274
29.9499
20.5045
29.9071
37.6599
36.0189
29.8431
29.7923
42.1076
31.201
29.8244
31.856
34.8131
29.7713
42.9724
29.7112
48.296
29.7323
31.1196
29.7611
44.0472
63.5857
30.9749
24.5776
28.2024
31.2908
29.6294
37.4629
29.7635
29.6194
28.2925
27.4954
31.4472
22.9241
29.542
23.0191
44.6531
29.6432
21.1766
19.7892
24.7398
29.5122
55.7467
39.1649
29.4947
43.6889
29.6558
36.7842
32.6206
46.3499
48.9457
29.4393
29.7944
29.4001
42.6945
23.7624
29.3892
28.9574
32.1818
26.2406
38.0605
29.3694
43.0296
27.4574
29.4915
38.8653
58.6628
33.553
38.657
41.4505
29.3452
48.0091
32.5609
23.3842
29.3031
24.1259
29.3762
29.5238
49.6026
29.4969
29.3012
42.7659
30.2928
25.0006
48.002
19.9969
29.2392
22.449
29.384
38.9275
56.0672
28.1648
29.2587
32.821
21.4428
29.1659
40.6164
23.7624
29.4192
42.8976
35.4584
29.2564
41.8044
29.9323
33.4831
29.1492
48.2706
39.5489
33.1049
29.2591
25.796
27.6842
33.9052
31.5206
29.1351
25.8885
42.1394
50.1476
40.3942
29.4134
42.1426
29.5285
23.6561
60.1895
31.6382
34.9897
29.1017
21.9615
58.3195
39.7556
29.2684
24.7482
33.235
21.3405
34.2219
20.8143
29.4579
39.4768
29.1157
25.0143
46.8577
37.9998
36.477
29.2438
38.2692
37.6765
29.6298
35.0314
26.735
41.2329
29.1092
29.9942
25.3545
39.5949
29.8145
27.2181
29.1679
60.3956
38.0753
30.2544
32.0579
44.4431
36.6625
32.1109
29.1083
27.088
30.1082
28.4646
32.8357
50.2083
26.0569
25.7763
29.1865
34.4604
38.4647
17.3905
29.0771
60.0803
29.7254
30.1037
26.4365
26.3782
24.7391
36.238
29.2228
34.8751
40.1367
37.3623
28.9939
26.1227
30.7117
30.0758
29.6325
29.911
49.4317
29.0633
31.4405
28.6671
26.773
35.5992
30.5773
32.2509
45.0147
35.1903
47.2673
24.7561
24.0793
34.159
30.6767
29.2562
26.9668
28.6718
18.022
67.0533
39.7708
22.5861
28.6681
38.7477
36.261
20.909
32.5359
35.991
37.4688
28.2972
28.2787
30.796
28.4584
25.2707
32.6527
31.416
31.743
39.9374
31.0644
33.4762
28.1983
30.1061
28.0208
28.2381
48.1073
27.1899
33.2584
30.1967
23.3454
24.2049
50.4896
25.096
27.8798
39.9465
34.1578
21.5555
34.9299
27.7249
51.6724
27.8956
20.8531
28.3882
15.9506
25.405
27.7968
27.3211
28.9263
46.6405
27.2115
31.8825
31.8742
27.6655
34.5227
22.1719
30.8657
37.6233
26.7026
28.9094
27.7238
26.6107
26.7617
33.0507
45.7773
27.2405
32.6159
39.2894
35.148
22.829
25.802
26.213
40.3301
25.4714
25.4261
44.3708
26.434
26.7765
27.1761
21.4741
23.8413
32.9965
32.2888
33.1126
59.6059
25.9332
18.1509
25.2459
25.8507
32.7322
30.8116
19.4594
26.2482
38.78
26.1382
27.5589
40.9022
25.3377
31.2574
25.4459
22.8611
36.0945
26.0032
29.3958
30.7389
24.3646
19.6425
25.6202
38.9471
34.3692
24.6323
40.44
25.2414
29.8593
35.5148
41.8782
25.1677
40.4555
15.6644
26.2433
42.2087
33.1387
30.759
25.2148
33.416
24.1481
19.387
37.4096
22.8165
29.3523
17.8092
26.7203
26.3056
49.1374
35.5813
24.7839
33.2828
32.9275
21.341
23.4937
45.7042
42.2421
36.1407
42.5165
27.2533
24.7637
34.6053
24.5104
19.504
38.3611
27.3545
21.8094
34.9955
26.7609
35.2478
22.7905
36.0219
28.4439
24.31
38.5189
44.8915
34.9604
31.5654
16.9795
34.2214
24.7648
24.8709
21.7486
27.8993
43.6208
40.2263
41.755
36.6807
25.676
40.1131
34.224
22.7179
37.7842
21.1746
16.4589
24.5745
33.4183
38.5065
26.9007
28.8305
33.0664
36.2974
26.1756
24.2387
25.8896
31.5422
24.5289
16.9283
36.0477
42.6066
22.6825
38.8151
21.419
24.372
27.6533
41.9961
36.8605
47.2436
38.2642
45.7583
26.5386
36.218
34.5076
42.2167
35.1965
25.878
31.4116
21.8656
39.8921
16.5573
24.1497
18.803
37.4721
22.5694
22.7013
36.4441
24.0525
23.0855
29.277
30.244
25.0545
36.3542
28.1832
26.2935
33.6881
35.4741
23.5339
35.3987
22.7871
43.2965
24.4433
44.0568
23.995
18.5025
41.501
17.4862
40.3346
18.0731
43.2604
22.766
26.889
24.9429
30.9569
22.7919
24.1666
33.7822
29.4694
39.0907
23.9662
17.2604
22.9332
28.8843
39.3262
20.6855
26.0735
30.9972
22.7199
41.6557
24.2239
26.3134
16.1315
25.9843
39.1925
23.157
26.7309
38.043
22.8413
24.6123
34.0593
35.6339
36.1824
28.6417
24.296
27.298
22.9832
41.4913
18.9811
20.08
26.0179
27.7001
31.9925
38.3329
24.0545
22.89
23.5599
24.3711
37.5751
38.3145
27.2324
30.8296
28.2411
28.6611
23.9844
23.8072
22.7755
30.6731
25.0256
24.601
35.3529
27.0134
26.8578
24.3309
26.7642
22.5776
23.705
35.494
28.7346
26.175
18.8829
23.5012
27.6637
28.5815
29.85
24.5259
22.3614
23.5926
24.9101
23.2769
30.3666
29.0784
24.9225
29.2379
22.1047
23.3801
29.4801
25.4697
30.7866
25.6351
30.7071
21.713
23.5128
27.1771
23.8045
23.2149
30.1521
18.9341
30.9013
30.5637
26.2341
22.8975
21.4462
31.1599
22.3315
29.3759
25.9966
22.0362
30.0647
22.5529
22.692
21.274
20.4176
31.2792
22.9232
21.0792
22.3608
24.7627
26.831
22.8375
20.972
22.2815
24.1218
20.6184
22.405
24.0395
21.0119
25.8984
22.3512
21.3139
22.4064
SCALARS friction float 1
LOOKUP_TABLE default
6.32987
6.28621
5.62416
5.43556
6.1617
4.52
5.26723
4.38485
6.0714
6.21315
4.11732
5.14149
6.51018
6.41988
8.10953
7.60911
4.62179
4.60019
7.13172
6.54255
6.98682
7.65672
6.31841
4.63784
5.89098
7.78455
6.19614
9.48933
4.43688
9.49597
7.11763
6.85979
5.09134
11.5161
5.81942
13.2341
3.9444
13.5016
11.5652
8.12007
5.12718
14.0993
8.75944
5.71323
14.0557
7.21148
3.95431
6.71988
14.2224
5.14861
12.4106
5.77788
10.762
7.36377
3.82571
12.777
6.41163
13.1983
13.9484
10.1282
5.16119
8.41268
10.1078
5.71775
7.43739
4.12873
8.2251
7.38778
5.19226
7.83485
7.79068
6.57435
13.9986
10.0376
5.87024
9.18927
8.04736
8.39532
7.69981
4.07019
8.41583
5.2801
7.75768
7.69878
13.8908
5.79702
6.94064
4.29713
6.38029
6.82759
8.55374
8.40099
5.40767
9.71971
7.92979
7.1296
5.98959
13.1566
7.28957
7.25938
4.24579
7.91048
8.63889
7.54402
6.92253
8.43726
5.59634
8.84452
9.58598
7.65019
6.04539
8.58497
11.8483
4.69171
9.8908
10.0503
9.77689
5.85718
9.09244
8.87827
7.44834
7.08846
8.34037
7.9734
10.1645
6.36258
7.85078
8.72901
11.0238
4.85691