# vtk DataFile Version 3.0
File generated from DClib
ASCII

DATASET UNSTRUCTURED_GRID
POINTS 2394 float
75 0 0 
74.0132 0 0 
75 1 0 
74.0132 1 0 
73.0263 0 0 
75 2 0 
72.9355 1.08748 0 
73.9223 2.08748 0 
72.0395 0 0 
75 3 0 
72.8446 2.17496 0 
71.9486 1.08748 0 
73.9223 3.08748 0 
71.0526 0 0 
75 4 0 
72.8838 3.58748 0 
71.5238 2.50694 0 
70.6278 1.41947 0 
73.9615 4.5 0 
70.0658 0 0 
75 5 0 
71.563 3.91947 0 
72.9229 5 0 
69.641 1.41947 0 
70.203 2.83893 0 
73.9615 5.5 0 
69.0789 0 0 
75 6 0 
69.1476 2.44434 0 
72.9229 6 0 
71.6239 5.5 0 
70.2639 4.41947 0 
68.5855 1.02487 0 
73.9615 6.5 0 
68.0921 0 0 
75 7 0 
68.0921 2.04975 0 
72.9229 7 0 
71.6239 6.5 0 
68.6542 3.74338 0 
67.5987 1.02487 0 
73.9615 7.5 0 
70.3248 6 0 
67.1053 0 0 
75 8 0 
67.5987 3.34878 0 
67.1053 2.04975 0 
68.7151 5.32391 0 
73.0785 8.1 0 
66.6118 1.02487 0 
74.1171 8.6 0 
66.1184 0 0 
75 9 0 
66.6118 3.34878 0 
66.1184 2.04975 0 
71.6239 8.5 0 
67.1053 4.64782 0 
69.1755 7.15213 0 
70.3248 8 0 
73.2341 9.2 0 
65.625 1.02487 0 
74.1171 9.6 0 
67.5657 6.47604 0 
65.1316 0 0 
75 10 0 
65.1316 2.04975 0 
71.7795 9.6 0 
73.0785 10.1 0 
64.6382 1.02487 0 
65.1137 3.65591 0 
73.9615 10.5 0 
65.6071 4.95495 0 
68.0262 8.30425 0 
69.1755 9.15213 0 
64.1447 0 0 
66.0569 6.38442 0 
75 11 0 
71.6239 10.5 0 
70.3248 10 0 
64.1447 2.04975 0 
72.9229 11 0 
63.6513 1.02487 0 
64.1268 3.65591 0 
73.9615 11.5 0 
66.5173 8.21264 0 
63.1579 0 0 
75 12 0 
63.1579 2.04975 0 
64.1089 5.26208 0 
73.0785 12.1 0 
67.2259 9.58662 0 
68.3752 10.4345 0 
62.6645 1.02487 0 
64.5587 6.69155 0 
63.14 3.65591 0 
74.1171 12.6 0 
62.1711 0 0 
65.0085 8.12102 0 
70.3248 12 0 
71.6239 12.5 0 
62.1711 2.04975 0 
75 13 0 
65.717 9.495 0 
68.9358 11.8258 0 
62.6466 4.95495 0 
73.2341 13.2 0 
61.6776 1.02487 0 
63.0969 6.3615 0 
74.1171 13.6 0 
61.6776 3.34878 0 
61.1842 0 0 
66.4255 10.869 0 
63.5467 7.79097 0 
61.1842 2.04975 0 
71.7795 13.6 0 
75 14 0 
73.0785 14.1 0 
60.6908 1.02487 0 
63.9359 9.23812 0 
73.9615 14.5 0 
61.1842 4.64782 0 
66.9861 12.2603 0 
61.6346 6.05437 0 
60.6908 3.34878 0 
70.3248 14 0 
60.1974 0 0 
64.6444 10.6121 0 
71.6239 14.5 0 
62.085 7.46091 0 
60.1974 2.04975 0 
75 15 0 
68.9358 13.8258 0 
72.9229 15 0 
59.7039 1.02487 0 
65.5009 12.0501 0 
62.4741 8.90807 0 
73.9615 15.5 0 
67.5467 13.6516 0 
59.2105 0 0 
60.2109 5.66149 0 
62.8633 10.3552 0 
60.6613 7.06804 0 
75 16 0 
59.1118 1.8996 0 
66.0615 13.4414 0 
69.4963 15.2171 0 
73.0785 16.1 0 
63.7198 11.7932 0 
59.2712 4.40082 0 
61.0276 8.51671 0 
58.6184 0.874731 0 
58.7778 3.10178 0 
68.1073 15.0429 0 
74.1171 16.6 0 
70.3248 16 0 
58.2237 0 0 
71.6239 16.5 0 
64.5763 13.2312 0 
61.4167 9.96386 0 
75 17 0 
66.6221 14.8327 0 
58.0263 1.74946 0 
59.2376 6.67516 0 
62.2346 11.583 0 
73.2341 17.2 0 
57.6316 0.874731 0 
59.6039 8.12383 0 
57.6923 2.95164 0 
58.2979 5.41449 0 
68.6678 16.4342 0 
74.1171 17.6 0 
65.1369 14.6226 0 
63.0911 13.0211 0 
57.2368 0 0 
59.9702 9.5725 0 
71.7795 17.6 0 
57.1382 1.8996 0 
75 18 0 
67.1826 16.2241 0 
69.4963 17.2171 0 
60.8215 11.2716 0 
57.3582 4.15382 0 
73.0785 18.1 0 
56.7434 1.02487 0 
63.6517 14.4124 0 
56.8041 3.10178 0 
57.8154 6.75019 0 
58.376 8.14151 0 
65.6974 16.0139 0 
73.9615 18.5 0 
61.6059 12.8109 0 
70.3248 18 0 
56.25 0 0 
71.6239 18.5 0 
56.25 2.04975 0 
58.7423 9.59018 0 
56.8757 5.48952 0 
75 19 0 
59.3749 10.8802 0 
67.7432 17.6154 0 
72.9229 19 0 
64.2122 15.8037 0 
62.1665 14.2022 0 
55.7566 1.02487 0 
60.1928 12.4994 0 
66.258 17.4052 0 
68.5717 18.3983 0 
73.9615 19.5 0 
55.7563 3.4912 0 
55.2632 0 0 
56.3932 6.82522 0 
56.9538 8.21654 0 
62.727 15.5935 0 
55.2022 2.43916 0 
57.5143 9.60785 0 
75 20 0 
64.7728 17.195 0 
60.6813 13.992 0 
58.147 10.8979 0 
73.0785 20.1 0 
58.7796 12.188 0 
55.3905 5.27933 0 
54.7088 1.41428 0 
66.8186 18.7965 0 
70.3248 20 0 
74.1171 20.6 0 
63.2876 16.9848 0 
61.2418 15.3833 0 
69.1323 19.7896 0 
54.2763 0 0 
71.6239 20.5 0 
59.2681 13.6806 0 
65.3334 18.5863 0 
75 21 0 
54.1544 2.82857 0 
55.4686 8.00635 0 
54.908 6.61503 0 
56.0291 9.39767 0 
73.2341 21.2 0 
53.7219 1.41428 0 
56.5897 10.789 0 
61.8024 16.7746 0 
57.2224 12.079 0 
63.8482 18.3761 0 
59.7566 15.1731 0 
67.3791 20.1878 0 
74.1171 21.6 0 
53.7886 4.61671 0 
53.2895 0 0 
71.7795 21.6 0 
57.7829 13.4704 0 
53.2285 2.43916 0 
65.8939 19.9776 0 
75 22 0 
62.363 18.1659 0 
60.3172 16.5644 0 
73.0785 22.1 0 
52.7961 1.02487 0 
53.9834 7.79616 0 
54.5439 9.18748 0 
64.4087 19.7674 0 
58.2714 14.9629 0 
70.3248 22 0 
53.4228 6.40485 0 
73.9615 22.5 0 
55.1045 10.5788 0 
69.1323 21.7896 0 
52.7351 3.7382 0 
52.3026 0 0 
67.9397 21.5791 0 
55.6651 11.9701 0 
71.6239 22.5 0 
52.3026 2.04975 0 
60.8778 17.9557 0 
62.9235 19.5573 0 
58.832 16.3542 0 
75 23 0 
66.4545 21.3689 0 
56.2257 13.3614 0 
72.9229 23 0 
51.8092 1.02487 0 
52.3693 5.52633 0 
64.9693 21.1588 0 
51.8092 3.34878 0 
56.7862 14.7527 0 
73.9615 23.5 0 
61.4383 19.3471 0 
59.3926 17.7456 0 
51.4145 1.8996 0 
51.3158 0 0 
53.0587 8.97729 0 
52.4982 7.58597 0 
53.6193 10.3686 0 
71.2128 23.5672 0 
63.4841 20.9486 0 
54.1799 11.7599 0 
57.3468 16.1441 0 
75 24 0 
50.9211 0.874731 0 
51.3158 4.64782 0 
54.7405 13.1512 0 
72.5118 24.0672 0 
69.5776 23.6331 0 
50.9211 3.19864 0 
68.385 23.4226 0 
59.9531 19.1369 0 
61.9989 20.7384 0 
55.301 14.5426 0 
57.9074 17.5354 0 
51.4447 6.70746 0 
67.1321 23.2061 0 
50.5263 1.74946 0 
73.5504 24.5672 0 
50.3289 0 0 
65.6469 22.9959 0 
55.8616 15.9339 0 
75 25 0 
51.5735 8.7671 0 
52.1341 10.1584 0 
49.9342 0.874731 0 
52.6947 11.5497 0 
60.5137 20.5282 0 
58.4679 18.9267 0 
72.1008 25.1344 0 
53.2553 12.941 0 
49.8355 3.34878 0 
56.4222 17.3252 0 
53.8158 14.3324 0 
70.4655 25.2003 0 
73.5504 25.5672 0 
49.4408 1.8996 0 
49.3421 0 0 
63.815 23.2124 0 
59.0285 20.318 0 
49.9595 6.49727 0 
54.3764 15.7237 0 
61.0743 21.9195 0 
56.9827 18.7165 0 
75 26 0 
68.8303 25.2661 0 
49.3989 5.10595 0 
67.5774 25.0496 0 
48.8487 1.02487 0 
62.3298 23.0022 0 
50.6489 9.94823 0 
66.3246 24.8331 0 
50.0883 8.55691 0 
51.2095 11.3395 0 
54.937 17.115 0 
51.7701 12.7309 0 
72.4347 26.4726 0 
59.5891 21.7093 0 
57.5433 20.1078 0 
48.3553 0 0 
52.3306 14.1222 0 
48.3553 2.04975 0 
70.9797 26.4993 0 
55.4975 18.5063 0 
73.8843 26.9053 0 
75 27 0 
52.8912 15.5135 0 
47.8618 1.02487 0 
69.3444 26.5651 0 
64.4926 25.0496 0 
58.1039 21.4991 0 
47.9186 3.80692 0 
53.4518 16.9048 0 
68.3162 26.5651 0 
60.1497 23.1006 0 
56.0581 19.8976 0 
67.0633 26.3486 0 
49.1637 9.73804 0 
49.7243 11.1294 0 
47.3684 0 0 
48.6031 8.34672 0 
50.2849 12.5207 0 
47.3684 2.04975 0 
61.4051 24.1834 0 
66.035 26.3486 0 
48.0426 6.9554 0 
54.0123 18.2961 0 
50.8454 13.912 0 
72.7686 27.8107 0 
73.8843 27.9053 0 
75 28 0 
47.482 5.56409 0 
71.3136 27.8374 0 
62.6606 25.2661 0 
58.6645 22.8904 0 
51.406 15.3033 0 
56.6187 21.2889 0 
46.875 1.02487 0 
46.9318 3.80692 0 
69.8586 27.8642 0 
54.5729 19.6874 0 
51.9666 16.6946 0 
68.8303 27.8642 0 
46.3816 0 0 
64.203 26.5651 0 
46.3816 2.04975 0 
67.802 27.8642 0 
57.1793 22.6803 0 
52.5271 18.0859 0 
48.2391 10.9192 0 
59.6464 24.5 0 
47.6785 9.52785 0 
48.7997 12.3105 0 
72.856 28.9053 0 
75 29 0 
73.9717 29 0 
47.1179 8.13653 0 
66.7737 27.8642 0 
49.3602 13.7018 0 
71.8278 28.9053 0 
45.8882 1.02487 0 
60.9019 25.5828 0 
46.5574 6.74521 0 
49.9208 15.0931 0 
63.0719 26.7325 0 
70.3727 28.9321 0 
53.0877 19.4772 0 
65.7455 27.8642 0 
69.3444 28.9321 0 
62.1465 26.5651 0 
50.4814 16.4844 0 
58.1612 24.2899 0 
45.3947 0 0 
45.7749 5.05301 0 
45.3947 2.04975 0 
68.3162 28.9321 0 
54.7594 21.7738 0 
51.4788 18.4418 0 
64.6143 28.0315 0 
67.2879 28.9321 0 
45.2247 3.29583 0 
75 30 0 
73.9717 30 0 
72.9434 30 0 
44.9013 1.02487 0 
71.9152 30 0 
46.7539 10.709 0 
47.3145 12.1003 0 
66.2596 28.9321 0 
46.1933 9.31766 0 
70.8869 30 0 
47.875 13.4916 0 
52.0394 19.8331 0 
59.1432 25.8994 0 
55.3199 23.1651 0 
45.6327 7.92634 0 
69.8586 30 0 
48.4356 14.8829 0 
63.4832 28.1989 0 
65.2313 28.9321 0 
44.4079 0 0 
60.3877 26.8818 0 
53.2742 21.5636 0 
68.8303 30 0 
44.4079 2.04975 0 
62.5578 28.0315 0 
48.9962 16.2742 0 
56.4771 24.5037 0 
44.8502 6.23413 0 
67.802 30 0 
61.6323 27.8642 0 
44.2378 3.29583 0 
49.9936 18.2316 0 
64.1002 29.0994 0 
43.9145 1.02487 0 
66.7737 30 0 
59.3793 26.9231 0 
44.0678 4.54192 0 
50.991 20.1889 0 
60.6239 27.9055 0 
65.7455 30 0 
63.0719 29.0994 0 
57.4591 26.1133 0 
45.8292 11.8901 0 
45.2687 10.4988 0 
46.3898 13.2814 0 
43.4211 0 0 
52.2258 21.9194 0 
44.7081 9.10747 0 
43.4211 2.04975 0 
46.9504 14.6727 0 
62.1465 28.9321 0 
58.4385 27.0222 0 
64.7172 30 0 
44.1475 7.71616 0 
47.511 16.0641 0 
59.6155 27.9468 0 
43.251 3.29583 0 
53.4606 23.65 0 
63.6889 30 0 
42.9276 1.02487 0 
61.1182 28.9321 0 
48.0715 17.4554 0 
43.365 6.02395 0 
54.6178 24.9885 0 
49.069 19.4127 0 
62.6606 30 0 
58.6747 28.0459 0 
50.8222 21.6733 0 
42.4342 0 0 
60.1098 28.9734 0 
55.775 26.3271 0 
42.4342 2.04975 0 
52.057 23.4039 0 
56.7544 27.236 0 
44.344 11.6799 0 
49.6295 20.804 0 
44.9046 13.0712 0 
61.6323 30 0 
43.7834 10.2886 0 
45.4652 14.4625 0 
43.2228 8.89729 0 
57.7339 28.1449 0 
46.0258 15.8539 0 
59.1213 28.9734 0 
41.9408 1.02487 0 
42.6622 7.50598 0 
46.5863 17.2452 0 
60.604 30 0 
55.9067 27.3302 0 
52.3471 24.5393 0 
53.1846 25.3346 0 
47.1469 18.6365 0 
41.7707 4.59487 0 
56.8861 28.2391 0 
41.4474 0 0 
58.1804 29.0725 0 
50.6533 23.1578 0 
41.3487 1.8996 0 
59.6155 30 0 
54.3417 26.6731 0 
55.1468 27.4186 0 
47.7075 20.0278 0 
49.4607 22.2884 0 
57.2873 29.0725 0 
56.0384 28.3333 0 
43.4194 12.861 0 
42.8588 11.4697 0 
43.98 14.2524 0 
40.8553 0.874731 0 
58.627 30 0 
50.9434 24.2932 0 
40.9539 3.34878 0 
42.2982 10.0784 0 
44.5406 15.6437 0 
48.2681 21.4191 0 
41.7376 8.68711 0 
45.1011 17.035 0 
41.068 6.0769 0 
40.4605 0 0 
56.4396 29.1666 0 
55.2785 28.4216 0 
41.177 7.2958 0 
57.7339 30 0 
45.6617 18.4263 0 
40.2632 1.74946 0 
51.2336 25.4286 0 
52.071 26.2239 0 
52.9085 27.0192 0 
46.2223 19.8176 0 
49.2716 23.6764 0 
53.7135 27.7646 0 
55.6371 29.1666 0 
56.8408 30 0 
54.5186 28.51 0 
39.8684 0.874731 0 
[...]
POINT_DATA 2394
SCALARS cohesion float 1
LOOKUP_TABLE default
31.8288
31.4169
22.3529
21.4157
32.9129
26.2117
20.6545
27.001
31.5429
33.135
28.4303
20.0914
32.8759
31.815
31.7891
33.0564
30.8544
19.5667
32.5727
29.6981
35.8835
31.5481
35.1978
18.9961
33.506
36.9857
31.6499
34.2397
28.6962
34.5907
37.8553
32.7389
18.903
31.1148
31.0742
30.6153
24.1129
29.7152
28.9801
31.0823
18.9655
32.7661
32.6098
32.8495
35.4474
32.4765
24.329
39.1278
35.0772
19.1185
35.6769
32.0851
34.4163
31.1808
25.6023
34.893
40.596
29.9361
34.36
33.5851
19.4973
33.4492
30.2805
33.7303
33.4663
24.5896
32.5022
33.8949
19.9513
33.7262
34.6499
42.3823
37.6421
34.8308
32.5255
32.0959
36.4011
32.4964
30.4653
24.8286
35.3719
20.2715
34.9495
37.925
36.7659
34.1404
39.9906
24.4722
43.0124
40.2056
33.8477
31.5834
20.3832
30.0465
33.7871
39.3391
32.8206
38.2656
35.6175
36.6199
24.9552
36.8302
36.0423
34.9056
43.5641
34.591
20.3914
30.419
31.5015
31.0972
33.6065
33.8849
36.1627
23.7247
28.5865
30.5861
30.1893
20.2118
37.5533
34.303
41.3245
36.034
32.8745
30.6736
25.6859
31.7612
35.1983
33.1474
31.4718
23.255
37.7601
25.6095
37.9977
19.7782
37.4861
37.847
38.536
26.7901
31.6307
36.5837
35.7242
27.1763
37.9543
20.9057
29.4234
31.3621
36.4786
36.7805
37.1373
37.9701
20.0442
27.1808
30.8285
36.3842
31.0576
29.2034
32.5278
33.2856
35.0966
36.0832
31.9528
18.957
24.5597
35.3057
34.7272
19.4624
36.3006
25.3009
38.7364
27.6133
37.3449
34.4384
36.2766
28.9878
33.1545
33.3006
19.1814
40.5152
28.3107
27.2895
32.8743
34.2025
41.6129
18.0809
36.2423
25.055
25.0239
34.8834
31.461
46.5343
36.1259
35.179
27.5633
45.9246
19.1732
32.2353
35.9729
48.0099
32.3822
29.469
49.0336
36.345
36.9201
17.4367
34.6496
29.2201
40.2214
44.0236
25.4313
26.7041
24.7476
34.1122
41.8223
20.8031
30.6546
36.4162
30.5637
36.0554
30.0813
35.7384
31.6902
39.4837
16.4757
44.06
35.2653
32.2786
32.5915
45.0335
36.3843
24.78
32.4103
32.5119
43.8737
30.0151
20.6571
32.1846
24.3552
29.0485
28.49
16.269
29.2604
34.3393
30.4964
45.9861
47.1785
31.7284
26.2231
37.8135
25.0241
26.2865
31.9922
19.6823
33.7709
23.1761
45.4075
35.3963
22.4933
16.5371
30.8841
27.4443
37.9376
45.4646
20.7476
24.5568
20.5018
28.7561
21.241
28.2478
24.4582
22.2865
29.8183
20.0248
17.8962
43.5819
43.156
36.2965
20.9314
23.6959
30.8232
20.6389
16.516
35.4623
24.9502
23.9751
44.972
23.3993
48.6511
40.2854
17.4149
24.3028
26.7821
26.9113
27.6206
24.2488
27.1339
29.6805
36.5587
24.2781
17.153
44.3128
31.4548
23.8216
23.2407
23.1044
22.7847
50.9324
32.0859
41.7873
36.6785
24.7951
20.9569
16.7987
21.6694
23.621
20.2852
38.8341
19.9317
27.2774
26.1246
17.211
29.9278
35.7996
51.2427
18.5709
32.4767
24.3516
34.216
38.9901
19.2501
17.635
17.6071
23.914
20.9714
39.3289
25.9083
40.8815
25.0378
47.6192
17.8214
18.5966
41.0045
19.3792
16.9511
19.9846
23.8083
19.4157
26.6875
29.5633
32.1546
32.1648
18.5396
27.841
42.9471
23.3284
35.2171
17.4515
18.4792
43.2638
18.5961
18.6765
42.6651
17.6122
18.4589
18.2936
29.5173
29.6193
31.9219
18.1616
22.1452
46.9866
17.6679
22.2872
28.9522
23.3017
27.5301
32.749
16.9975
21.3335
17.3677
23.2242
39.6407
30.3285
16.7061
17.5672
18.1982
37.0949
17.5531
17.7744
22.8146
43.7794
30.4723
17.8955
29.3161
17.1542
48.7958
30.0618
17.5819
23.5279
18.1334
17.8561
16.9925
23.5724
36.678
27.2997
20.8685
21.6622
31.5413
27.3502
26.8921
27.4719
28.4441
17.6242
27.3033
27.5075
17.9166
17.7393
23.8648
40.4085
19.8901
28.3265
49.5847
17.1573
28.6185
20.2577
29.9596
20.5475
24.3026
41.1011
18.8135
28.7201
26.9428
36.7547
18.3736
28.7145
24.3044
24.2088
24.2509
23.559
18.3486
24.7006
26.5084
30.9896
28.6295
21.624
24.2432
24.5064
48.1043
19.1018
22.5294
30.3325
25.1367
37.0901
19.5928
29.6633
24.4656
23.177
29.8234
24.6528
18.9522
19.614
29.4811
18.7587
26.1784
25.5413
18.4173
24.5737
31.7774
31.1102
18.9347
25.268
22.8838
42.8652
49.0408
19.6457
26.0275
31.6245
19.9686
30.6251
25.87
24.2745
25.2535
26.0155
24.1186
19.3505
31.6701
31.69
23.7645
25.2056
29.942
29.9012
19.5155
25.0779
21.5772
26.2669
19.5365
31.9326
26.2597
28.9326
17.9165
41.2223
26.5258
20.2794
26.8934
25.6827
32.0562
21.5458
19.6758
23.5958
22.5436
30.4039
35.759
24.77
27.9221
25.495
28.2682
26.9441
19.2376
30.6812
31.6416
20.3353
30.229
25.6337
27.5018
19.9299
19.0865
18.9136
28.8001
42.1679
20.9862
26.6434
30.8502
24.3657
19.7342
27.9894
24.1911
21.0119
41.7158
23.9538
29.6282
21.5612
27.2497
31.4001
25.3142
21.7867
26.6
20.3442
27.1852
26.1323
32.0856
26.7378
30.6305
24.6666
29.8445
27.1768
27.9832
21.4205
30.2705
26.4063
25.4883
20.1573
20.7597
23.8559
26.6374
39.7694
23.8341
19.2366
26.8954
25.5195
21.5363
22.6156
26.2558
23.3348
27.3406
30.4802
23.1819
31.8052
19.0749
35.3134
25.8597
26.3962
28.5051
20.8447
23.853
26.7519
25.0201
20.5144
34.3038
23.6376
44.9047
26.8245
19.4426
23.8802
24.1136
29.7937
25.1223
24.8364
28.9875
22.8323
24.6368
37.3947
28.0515
22.6394
25.2831
22.7849
29.7602
24.7419
24.889
29.5838
20.6084
23.3899
23.0765
33.0798
36.2022
25.5663
24.5367
32.6711
25.7966
25.6114
20.6266
21.7216
28.6471
28.5874
23.6083
27.9326
23.2677
26.3021
37.7425
31.7858
24.6364
36.0704
33.744
25.2468
25.8128
22.2226
24.0176
21.2493
33.6335
26.4527
31.4041
24.2475
24.5587
22.0325
21.6121
22.558
29.6779
26.2287
20.7148
28.4021
27.0319
24.9058
22.2738
22.0548
37.1477
26.687
35.8083
26.5343
33.6052
27.561
23.7985
24.9323
30.4666
30.4573
30.7728
36.7885
26.547
26.5379
27.6037
40.557
28.3417
32.8294
24.9541
25.7231
22.3409
23.3056
25.3449
38.0675
21.0158
20.8489
21.536
24.6775
25.5393
28.8982
25.7934
26.1702
22.7086
29.1403
29.3555
21.6012
26.2541
31.1496
25.5199
25.4125
26.7758
27.5436
34.48
23.9189
28.9585
29.4533
36.3345
25.6945
24.1303
34.0133
21.3857
26.9651
34.2562
27.4886
24.6267
33.6609
29.8114
32.6099
20.8972
25.7547
22.0134
26.4359
24.2954
27.2753
39.6565
26.3338
26.6943
30.1029
26.3873
25.5434
27.4411
31.3483
26.4803
22.0789
31.9643
24.3615
36.0115
30.4968
24.6125
22.615
26.5573
26.7115
27.29
28.3948
28.8228
30.7921
24.0987
26.7327
21.1593
34.5878
28.6464
26.7095
20.4419
31.0599
26.4747
25.4768
27.1916
32.5226
29.946
28.4701
26.1266
25.7244
24.8304
24.7089
23.1474
27.007
28.7514
31.2934
26.6221
38.1233
35.5042
24.6365
28.5947
40.4775
22.6458
27.1969
31.5258
26.6196
41.0132
26.8076
26.6747
29.0416
26.2971
29.5983
27.4924
31.7542
22.4888
31.283
29.1858
22.9488
25.4893
28.587
27.767
31.8817
23.5703
26.9081
29.603
26.5441
28.0943
25.1418
32.0729
24.2855
28.2465
26.2666
27.0181
29.7031
36.7102
24.4304
20.7657
32.1919
28.4175
26.7323
23.0373
27.1594
30.0919
26.8351
28.6864
32.3788
44.3088
30.1783
22.629
26.9722
32.4832
29.0046
21.3862
26.6021
27.8873
28.0303
30.5439
26.018
27.3329
29.2593
32.6416
28.4562
30.6174
28.3148
27.8939
22.8392
44.5294
26.6595
32.733
25.7683
29.5138
24.533
37.7489
28.4931
30.9548
35.301
27.5327
26.6044
31.9588
29.761
32.8617
31.0305
27.4293
24.1184
29.8255
32.9382
30.0211
23.9085
26.5069
28.7907
31.3392
27.6634
23.6088
33.0443
30.8505
30.1489
28.9415
24.2286
31.4138
27.1597
38.2089
24.746
23.5666
33.1127
30.3136
28.3212
29.0368
31.6191
26.637
28.608
33.1856
30.4077
38.32
26.2218
31.6085
21.1561
33.1568
30.5127
27.7105
22.7459
31.7439
34.3462
30.1334
33.138
22.9774
29.7515
34.3609
27.7607
31.7506
26.6037
33.142
35.503
31.2493
25.6219
29.8426
27.5978
33.1771
31.2982
35.8711
36.7774
29.9214
33.2317
28.8948
27.5158
35.9323
31.3989
35.18
26.6753
22.1297
29.5096
33.2992
29.0605
27.292
35.2482
37.69
31.4937
25.7029
37.3416
29.0914
33.3689
36.8867
22.6144
31.0835
35.5425
27.3695
46.1714
33.4519
37.1427
41.3388
29.417
36.2301
26.6362
35.6837
38.3444
31.2124
27.2568
38.271
24.5518
23.549
30.5652
37.4133
33.5806
23.4018
37.7165
29.7215
38.4455
31.526
36.9626
33.7553
38.5977
29.2769
38.195
43.3398
28.0496
26.7565
31.7289
37.1339
38.8415
27.3573
33.9804
25.4706
28.848
23.0093
36.6483
38.849
32.8574
31.2841
34.2187
38.7228
27.6031
38.5615
32.2827
36.8669
26.6096
25.6713
29.4989
22.8242
21.6315
37.5003
31.5467
38.6032
38.9247
34.5127
23.8968
27.4547
37.381
30.1932
39.3285
38.9125
32.3053
27.1419
34.8844
38.3832
23.9712
39.4688
26.2548
22.5668
37.6727
29.5848
39.2105
26.803
38.8957
32.6979
35.3137
26.7831
39.6431
38.2223
29.0472
39.3196
39.5216
32.0802
27.0517
23.0773
35.8
39.7684
22.3105
38.2192
38.5334
42.6898
29.6959
39.8575
47.78
38.9239
32.5775
38.7193
36.3463
26.8085
27.0662
39.9512
28.408
39.103
40.0651
39.3026
30.4028
27.1596
19.4887
33.4466
32.6079
36.9618
39.763
37.7532
39.4377
28.7093
40.2025
30.2462
38.5471
34.1843
39.762
23.5054
34.6533
37.6443
39.8949
27.6077
22.4635
21.1455
26.1186
38.9652
40.2242
27.4643
36.5587
27.2655
30.1605
50.4153
34.0483
39.7898
38.3905
25.3207
40.1389
34.7671
40.2671
23.8265
21.701
27.5889
37.1372
29.1468
30.7061
35.0285
39.0984
50.2912
40.4119
40.1536
38.7277
25.1042
28.9702
24.0973
39.2482
31.3264
35.7523
27.9458
39.8158
30.281
40.4349
31.8669
46.1166
39.8777
27.8572
39.8609
34.7714
39.0908
32.9264
35.1139
37.011
32.3094
40.2504
40.3778
38.6078
39.7374
21.3096
43.4384
38.6385
37.8845
40.6859
33.6719
21.5713
40.2812
20.7799
39.0453
28.8853
20.9921
29.5561
28.7808
27.314
27.1268
25.4104
30.2176
50.4236
28.8229
37.1303
25.0454
27.2831
29.3093
40.6982
39.1342
39.8096
25.4051
38.6411
34.8928
35.0879
39.3288
30.0345
37.5454
40.4739
39.3876
38.3643
38.1549
39.9589
36.4321
26.7931
48.3008
36.0299
37.9713
36.4379
30.9369
27.0575
36.8966
30.108
38.7699
37.8368
26.4911
39.8818
29.8427
27.8221
40.5629
38.701
30.8664
35.0546
55.2406
26.469
30.2557
21.4953
37.4097
38.1772
21.8053
20.5244
21.4306
39.1942
55.963
40.5645
27.7847
32.0299
41.1349
26.7548
27.6658
26.0891
40.8365
39.0347
34.0925
29.328
36.3075
37.394
32.0763
37.5268
24.7417
38.4738
40.1137
31.0513
41.3929
28.5587
39.9872
44.1616
34.5448
37.2423
29.8023
42.0942
36.6887
57.9075
25.9284
37.5288
27.5463
26.0456
31.0667
30.5151
39.457
25.5432
41.7247
18.7506
32.691
31.7498
27.2607
35.4051
36.162
39.3582
36.9203
43.7051
19.5271
22.3367
22.8144
32.997
38.1298
41.1351
21.4514
25.809
28.8914
30.9657
42.9455
25.1405
33.2823
54.8605
36.4335
63.1274
29.5361
28.8435
37.1288
25.2008
25.177
25.9714
51.0472
26.5585
39.3126
39.8938
37.742
30.262
42.0994
33.6717
35.5714
29.8243
34.5929
36.092
23.3517
25.7187
46.6577
25.5893
36.2528
36.0611
26.7625
25.2065
38.1642
37.0433
27.5084
25.5469
25.5614
41.4647
31.6736
65.3995
30.5344
32.3263
25.971
35.2012
24.7237
26.2933
25.6075
25.4056
38.8043
25.32
36.0601
19.084
30.8509
44.0281
20.5522
51.6455
28.0712
49.4046
38.0061
54.2102
31.5728
25.8279
23.8667
42.3427
40.6707
32.1866
29.0425
26.6193
28.8578
42.9596
20.2001
25.6546
25.8111
35.1561
19.8029
70.1676
26.9848
25.6912
32.4779
36.049
33.1505
26.6569
26.5339
39.0263
28.4566
40.4208
20.5615
26.3611
21.9582
32.0442
52.0078
26.3055
30.7885
25.9234
35.704
31.4818
27.0442
27.1755
37.9024
45.1647
26.3357
42.51
47.1982
18.5542
39.8706
51.4926
42.5763
27.1639
31.5648
71.1234
26.6863
32.9562
35.1001
22.4743
28.1883
20.5962
26.8805
26.9996
32.4929
34.3348
33.8697
28.1019
26.337
27.8073
17.5971
26.4376
21.55
54.2149
21.973
27.9363
21.1992
35.6767
40.8621
43.5878
26.6959
27.8465
25.6314
26.9595
30.378
19.0886
27.553
27.9496
31.9486
31.4558
34.1772
74.6094
34.701
49.742
39.0561
49.946
37.8083
28.5627
27.0833
28.3142
51.9552
34.8598
23.1993
25.057
27.7305
41.517
25.8452
28.1227
43.0099
28.4308
28.7799
30.1541
55.6651
19.3317
44.1119
28.7172
29.7041
26.5784
29.5303
33.718
28.5002
28.2667
24.2387
27.3482
26.2426
27.1214
29.3125
29.0232
35.6382
19.1235
27.0612
73.9654
29.1886
35.0233
25.6814
19.8444
29.0356
23.9046
34.0547
29.1547
29.4103
23.7811
43.7713
29.8041
53.7349
20.7928
49.7757
28.7348
35.5825
41.5044
40.358
29.2627
37.0209
38.2083
56.1914
27.7407
29.6106
31.8465
30.0363
26.6033
33.6057
29.1393
29.3458
20.6209
47.0786
30.8055
28.8482
19.3244
40.5893
30.0642
24.8569
42.761
75.624
26.0554
36.3262
20.8071
26.6848
23.96
39.3295
30.0878
28.7262
28.7204
30.0311
26.3985
35.9375
36.2151
37.1323
22.0886
30.4234
27.878
24.834
30.0186
24.4697
46.9143
19.6545
22.6051
55.6998
37.5507
53.9841
27.7393
20.6145
37.6424
43.7616
19.9985
32.8194
46.3916
23.241
30.6475
42.0646
33.3221
39.1685
46.83
20.2616
28.1409
28.7988
38.9766
19.885
46.6634
45.5987
26.6953
30.1892
25.8652
30.3114
24.4806
72.75
40.965
35.8654
25.5431
28.3935
20.9284
47.6609
29.4893
30.0953
43.0755
19.3886
28.2786
24.0269
23.368
25.4006
45.1895
30.635
21.5727
48.2735
33.755
19.468
54.2065
40.1131
22.4048
26.456
20.2619
45.5944
23.0783
35.2229
22.2338
27.4705
32.6478
48.7089
35.79
27.7391
35.3026
24.6133
19.5258
33.7013
44.2639
30.1958
19.8204
43.3373
27.1572
45.9032
24.0667
21.6024
72.2157
50.6593
43.7358
22.0324
49.1564
33.6401
35.9539
25.5509
37.0326
30.1128
53.5706
19.4501
25.1011
29.0742
19.4975
46.1873
47.7659
27.5388
21.1108
26.4581
28.4307
23.3619
42.8308
23.5157
49.8478
38.1076
29.8472
19.2607
51.7592
19.3726
46.6614
20.5821
48.6665
35.0272
30.4715
22.7992
25.3976
27.3071
50.0826
25.46
23.2198
19.9025
47.0934
19.156
29.5065
49.334
27.3824
35.1981
20.4552
22.0472
34.0379
32.924
26.5588
67.3636
24.6379
50.2179
34.2573
36.9685
27.9026
47.5646
32.6745
47.4441
38.6253
20.5339
18.7336
24.1404
45.4855
20.3778
21.9144
23.7146
50.4029
38.1284
26.5772
32.5871
48.4967
41.7315
33.2946
31.3691
47.5473
21.6327
32.2208
50.4748
46.6872
49.4284
21.0295
21.9117
23.7867
47.833
26.0108
30.6943
33.4867
30.4811
41.6926
47.6307
48.0657
50.5091
18.9728
27.2569
21.2114
18.7671
23.8538
33.6292
23.4264
26.1028
30.1942
47.5496
29.6449
40.708
49.9395
64.4494
50.3011
34.0676
22.7484
21.2119
47.6329
40.4002
26.2852
35.5778
46.7687
49.8094
30.2255
26.6126
18.4255
50.1607
22.1319
49.2279
33.2037
47.5979
24.6781
42.2365
47.402
36.0764
50.0168
30.4817
37.5075
49.7406
27.791
39.5469
47.5523
30.2421
39.5851
30.1898
32.6749
21.2059
29.4391
26.1612
19.8812
47.0874
49.6812
46.8861
21.445
49.4803
25.1449
24.7294
47.334
45.4494
25.9309
39.9509
58.8654
18.0253
20.1356
33.4336
49.3977
49.2197
47.2517
48.613
22.7241
27.4132
41.5668
47.7796
45.7869
33.6829
29.9688
48.987
46.9745
21.064
27.1728
42.8752
49.0975
32.5297
24.7388
25.6889
37.0123
48.1753
20.6752
46.8052
19.5631
48.8304
44.4931
37.4139
31.9699
46.5629
48.3893
44.0665
25.1776
48.2637
26.6098
45.8394
23.3129
61.8674
25.5015
29.6355
46.4401
35.3515
38.561
19.1123
17.5719
48.1206
31.8125
48.0011
18.5
46.1679
48.0529
22.7252
24.1811
47.7072
23.6801
44.7197
46.0503
22.2032
35.2106
44.7358
20.5483
23.5854
40.0753
47.6277
47.4378
44.9644
45.7991
34.1815
17.3189
47.3431
19.1766
44.1444
47.0563
45.622
33.7527
46.9711
35.1731
32.5464
42.7066
20.8975
46.8063
45.3257
32.6477
60.9815
46.597
32.4169
46.7168
26.0378
27.7331
45.1655
45.9552
31.201
37.8154
46.4501
26.9019
30.8239
45.1886
39.1692
20.2069
16.3293
44.8847
17.1801
46.3202
34.0694
23.5044
38.0934
23.3318
27.6862
23.5621
44.7245
25.1269
44.9636
46.0187
22.5818
17.532
35.7221
20.9907
44.3852
17.2405
19.2974
44.8685
30.5516
29.5239
29.0926
45.6344
31.2976
22.6287
44.1824
58.0586
43.5911
30.5635
32.0032
41.4108
22.033
45.2851
42.2216
43.8246
36.9864
28.8828
44.9835
19.9443
33.0698
26.4042
39.0998
43.5702
40.0071
31.8426
42.6969
22.5649
23.4595
27.5312
18.7752
42.2931
44.537
17.9001
31.6176
19.493
43.2191
16.4695
42.8875
17.4926
22.0437
27.2197
44.1779
52.921
19.6182
19.9914
29.2497
23.8545
43.0565
27.4581
42.0774
22.2564
20.1862
31.1277
43.8399
30.844
32.4989
42.6979
32.0367
30.993
41.3455
35.8874
40.0465
43.3916
38.799
19.943
28.8784
42.5182
25.9409
21.8227
29.982
43.0177
20.9619
19.9774
26.0816
29.469
42.147
18.6688
30.0351
17.8944
40.5504
40.2755
52.966
28.5737
17.3152
23.9539
20.0752
47.0808
41.9775
18.2107
19.1958
21.5023
42.3491
23.8335
29.1809
35.0346
42.0597
31.1508
39.3456
37.2294
41.4512
30.1856
24.3051
30.8599
20.3586
41.9456
36.9945
31.0936
21.6481
26.3233
28.2755
33.8194
41.158
36.3836
18.8479
51.2411
20.5062
31.841
41.4791
23.9204
21.9208
31.4917
33.8962
18.563
33.5532
19.2244
40.685
19.5839
33.5622
20.3944
42.735
22.6199
33.3165
16.184
40.2445
38.7691
21.5846
28.686
40.3387
21.9827
32.9854
29.7303
25.5699
31.4038
19.6546
31.6602
39.7058
21.1583
53.4897
39.7884
39.8615
30.4025
45.0792
31.0091
32.6384
17.4454
25.3289
39.114
41.5563
39.688
29.7822
24.7202
30.69
38.41
21.0527
24.1191
26.6732
20.4105
19.0646
35.176
18.5353
34.546
30.0148
38.7224
23.724
21.675
21.4262
32.0303
39.2977
53.3292
32.1443
32.4364
26.4612
37.1021
27.8161
36.3927
39.1439
18.8845
39.121
33.6661
25.7059
41.8789
31.4975
33.8069
38.0038
22.0063
35.4618
31.1969
38.8676
38.7883
30.9831
25.6217
24.1205
31.7857
22.046
28.4427
21.0032
19.8521
34.5871
54.3723
20.5009
36.3371
32.2702
38.5019
25.9347
38.6904
19.6723
45.1887
34.0177
37.8159
33.0866
23.0191
20.9779
26.2506
38.3443
32.0253
42.2937
38.3425
22.1299
25.529
37.6838
45.2618
31.987
34.586
33.0499
21.8004
37.6244
29.7258
31.4428
38.3558
22.5364
52.7609
31.9017
23.1725
35.076
31.6055
33.3942
41.8319
32.4688
23.5219
37.4795
38.1983
20.2257
31.288
26.4136
41.769
22.7506
18.4286
26.1767
31.3778
23.5757
32.3543
37.4886
32.7706
35.8475
23.0045
38.1341
41.1586
20.8612
33.3774
54.5482
37.3387
40.9188
30.2039
29.3669
31.6115
38.0028
23.3397
33.7773
38.2566
34.5237
37.7808
28.5349
37.9372
37.0314
37.7938
28.1559
22.0526
26.6377
37.8772
21.2831
53.2733
29.8638
24.8244
30.9283
16.9948
33.0151
37.7306
26.4107
36.9753
33.7717
31.538
32.0741
35.5202
25.1674
31.8514
26.2933
33.0308
37.4716
37.8337
32.8814
31.5518
39.2276
37.2728
24.6724
42.6728
30.2156
52.2241
19.3056
23.4102
36.3912
37.7484
41.4857
26.9936
24.1102
26.0881
18.4966
29.0697
31.3467
36.0946
23.4564
31.7665
18.6043
29.6687
29.3385
32.1569
29.1661
26.1402
32.725
37.3999
27.1883
43.6938
41.1891
24.1538
35.5147
47.9475
39.7227
26.0963
25.6243
33.2786
36.1426
31.7328
29.2947
26.0398
37.9003
40.6237
24.1019
36.7941
18.8093
32.0701
25.751
26.3361
22.6552
29.1495
33.5509
27.4847
29.6225
19.0795
34.368
36.9741
27.606
42.4665
37.8285
17.6762
47.5293
39.9306
25.0356
29.9415
27.3792
26.647
30.8182
31.7546
29.7418
33.372
45.0654
22.1536
21.6768
27.4281
28.2824
28.4358
39.1733
23.8361
29.4388
37.2354
29.973
38.2108
30.1111
30.243
18.5241
28.2714
27.6315
30.7978
36.9214
18.2889
33.4078
29.4562
31.9701
37.9364
36.4752
19.264
24.1229
38.0478
30.6971
25.0157
25.7153
27.6929
28.8735
28.5954
29.1916
19.232
28.2567
27.3341
38.116
51.0485
19.2217
27.18
30.1973
38.2867
29.9469
46.1905
17.927
31.0438
22.8613
26.8199
33.1644
37.504
30.9687
38.2557
39.2333
28.7552
29.0812
26.7492
28.5596
29.0152
28.359
37.6402
29.4989
31.3222
26.3712
25.6514
44.2291
38.772
27.824
46.8619
33.1585
30.07
36.7188
41.5574
28.7949
29.9407
26.22
38.8944
38.811
31.2365
36.2575
26.9804
27.7459
29.237
24.9117
29.0893
32.5162
30.9391
39.2675
39.1805
41.6074
31.3048
47.5087
27.7156
31.3995
32.8864
30.4153
38.5844
38.9079
39.4225
25.1831
44.302
37.8073
28.9037
36.0248
26.8471
44.029
31.4794
30.0528
38.9791
39.9206
45.0383
35.1723
30.771
33.3584
28.1351
39.4088
38.9732
39.7808
37.4112
46.8096
41.4306
32.7276
30.166
39.4029
32.5167
38.1295
30.7631
39.8303
32.9233
28.872
31.3037
40.1545
30.64
39.6478
40.2053
30.2272
32.6873
38.335
31.4586
28.9603
36.58
40.0054
32.0245
40.2373
29.9353
38.7313
31.3466
39.8341
39.8515
32.3038
35.1767
28.6603
39.5007
39.8996
30.3959
29.0599
40.098
31.9859
37.7681
29.026
40.0696
37.6383
39.3633
SCALARS friction float 1
LOOKUP_TABLE default
8.22825
8.25689
10.3154
10.6186
8.06455
11.1249
11.0579
11.143
8.27764
11.0243
11.255
11.4733
11.4922
8.38564
10.0244
11.1969
11.9815
12.5313
8.14139
8.74488
7.4441
10.4235
6.84043
13.089
13.3611
7.22769
8.52114
7.45143
12.8466
7.37316
6.86827
8.27099
12.6401
7.74467
8.57231
8.5381
13.3214
8.36707
7.7559
11.5365
12.7284
8.8141
7.21904
8.33361
9.22766
12.6529
13.2938
7.08955
9.0839
12.7431
8.97596
8.46459
8.75227
12.3071
13.3784
8.59918
7.56516
8.50189
8.58692
8.42185
12.5356
8.26148
8.15519
8.13359
8.49123
13.4902
7.70663
8.37114
12.4096
11.1121
9.03474
7.61576
8.98289
7.74152
8.20097
8.65464
9.19677
8.99435
8.10472
12.9242
9.12647
12.2911
11.0444
8.71314
9.34506
7.84946
8.26772
12.9675
7.43017
8.44597
7.65747
8.69693
12.1909
9.59641
10.6666
9.40338
8.01218
9.64849
8.37011
9.07456
12.5286
11.2301
7.89284
8.5475
7.95311
12.3397
12.234
10.1483
14.1808
11.0699
7.71339
9.39576
10.0669
12.4955
14.3988
14.9378
14.576
12.3775
8.38673
12.9947
7.7928
9.00375
10.5712
11.159
16.3131
7.9628
8.91413
12.8136