# vtk DataFile Version 3.0
File generated from DClib
ASCII

DATASET UNSTRUCTURED_GRID
POINTS 2394 float
75 0 0 
74.0132 0 0 
75 1 0 
74.0132 1 0 
73.0263 0 0 
75 2 0 
72.9355 1.08748 0 
73.9223 2.08748 0 
72.0395 0 0 
75 3 0 
72.8446 2.17496 0 
71.9486 1.08748 0 
73.9223 3.08748 0 
71.0526 0 0 
75 4 0 
72.8838 3.58748 0 
71.5238 2.50694 0 
70.6278 1.41947 0 
73.9615 4.5 0 
70.0658 0 0 
75 5 0 
71.563 3.91947 0 
72.9229 5 0 
69.641 1.41947 0 
70.203 2.83893 0 
73.9615 5.5 0 
69.0789 0 0 
75 6 0 
69.1476 2.44434 0 
72.9229 6 0 
71.6239 5.5 0 
70.2639 4.41947 0 
68.5855 1.02487 0 
73.9615 6.5 0 
68.0921 0 0 
75 7 0 
68.0921 2.04975 0 
72.9229 7 0 
71.6239 6.5 0 
68.6542 3.74338 0 
67.5987 1.02487 0 
73.9615 7.5 0 
70.3248 6 0 
67.1053 0 0 
75 8 0 
67.5987 3.34878 0 
67.1053 2.04975 0 
68.7151 5.32391 0 
73.0785 8.1 0 
66.6118 1.02487 0 
74.1171 8.6 0 
66.1184 0 0 
75 9 0 
66.6118 3.34878 0 
66.1184 2.04975 0 
71.6239 8.5 0 
67.1053 4.64782 0 
69.1755 7.15213 0 
70.3248 8 0 
73.2341 9.2 0 
65.625 1.02487 0 
74.1171 9.6 0 
67.5657 6.47604 0 
65.1316 0 0 
75 10 0 
65.1316 2.04975 0 
71.7795 9.6 0 
73.0785 10.1 0 
64.6382 1.02487 0 
65.1137 3.65591 0 
73.9615 10.5 0 
65.6071 4.95495 0 
68.0262 8.30425 0 
69.1755 9.15213 0 
64.1447 0 0 
66.0569 6.38442 0 
75 11 0 
71.6239 10.5 0 
70.3248 10 0 
64.1447 2.04975 0 
72.9229 11 0 
63.6513 1.02487 0 
64.1268 3.65591 0 
73.9615 11.5 0 
66.5173 8.21264 0 
63.1579 0 0 
75 12 0 
63.1579 2.04975 0 
64.1089 5.26208 0 
73.0785 12.1 0 
67.2259 9.58662 0 
68.3752 10.4345 0 
62.6645 1.02487 0 
64.5587 6.69155 0 
63.14 3.65591 0 
74.1171 12.6 0 
62.1711 0 0 
65.0085 8.12102 0 
70.3248 12 0 
71.6239 12.5 0 
62.1711 2.04975 0 
75 13 0 
65.717 9.495 0 
68.9358 11.8258 0 
62.6466 4.95495 0 
73.2341 13.2 0 
61.6776 1.02487 0 
63.0969 6.3615 0 
74.1171 13.6 0 
61.6776 3.34878 0 
61.1842 0 0 
66.4255 10.869 0 
63.5467 7.79097 0 
61.1842 2.04975 0 
71.7795 13.6 0 
75 14 0 
73.0785 14.1 0 
60.6908 1.02487 0 
63.9359 9.23812 0 
73.9615 14.5 0 
61.1842 4.64782 0 
66.9861 12.2603 0 
61.6346 6.05437 0 
60.6908 3.34878 0 
70.3248 14 0 
60.1974 0 0 
64.6444 10.6121 0 
71.6239 14.5 0 
62.085 7.46091 0 
60.1974 2.04975 0 
75 15 0 
68.9358 13.8258 0 
72.9229 15 0 
59.7039 1.02487 0 
65.5009 12.0501 0 
62.4741 8.90807 0 
73.9615 15.5 0 
67.5467 13.6516 0 
59.2105 0 0 
60.2109 5.66149 0 
62.8633 10.3552 0 
60.6613 7.06804 0 
75 16 0 
59.1118 1.8996 0 
66.0615 13.4414 0 
69.4963 15.2171 0 
73.0785 16.1 0 
63.7198 11.7932 0 
59.2712 4.40082 0 
61.0276 8.51671 0 
58.6184 0.874731 0 
58.7778 3.10178 0 
68.1073 15.0429 0 
74.1171 16.6 0 
70.3248 16 0 
58.2237 0 0 
71.6239 16.5 0 
64.5763 13.2312 0 
61.4167 9.96386 0 
75 17 0 
66.6221 14.8327 0 
58.0263 1.74946 0 
59.2376 6.67516 0 
62.2346 11.583 0 
73.2341 17.2 0 
57.6316 0.874731 0 
59.6039 8.12383 0 
57.6923 2.95164 0 
58.2979 5.41449 0 
68.6678 16.4342 0 
74.1171 17.6 0 
65.1369 14.6226 0 
63.0911 13.0211 0 
57.2368 0 0 
59.9702 9.5725 0 
71.7795 17.6 0 
57.1382 1.8996 0 
75 18 0 
67.1826 16.2241 0 
69.4963 17.2171 0 
60.8215 11.2716 0 
57.3582 4.15382 0 
73.0785 18.1 0 
56.7434 1.02487 0 
63.6517 14.4124 0 
56.8041 3.10178 0 
57.8154 6.75019 0 
58.376 8.14151 0 
65.6974 16.0139 0 
73.9615 18.5 0 
61.6059 12.8109 0 
70.3248 18 0 
56.25 0 0 
71.6239 18.5 0 
56.25 2.04975 0 
58.7423 9.59018 0 
56.8757 5.48952 0 
75 19 0 
59.3749 10.8802 0 
67.7432 17.6154 0 
72.9229 19 0 
64.2122 15.8037 0 
62.1665 14.2022 0 
55.7566 1.02487 0 
60.1928 12.4994 0 
66.258 17.4052 0 
68.5717 18.3983 0 
73.9615 19.5 0 
55.7563 3.4912 0 
55.2632 0 0 
56.3932 6.82522 0 
56.9538 8.21654 0 
62.727 15.5935 0 
55.2022 2.43916 0 
57.5143 9.60785 0 
75 20 0 
64.7728 17.195 0 
60.6813 13.992 0 
58.147 10.8979 0 
73.0785 20.1 0 
58.7796 12.188 0 
55.3905 5.27933 0 
54.7088 1.41428 0 
66.8186 18.7965 0 
70.3248 20 0 
74.1171 20.6 0 
63.2876 16.9848 0 
61.2418 15.3833 0 
69.1323 19.7896 0 
54.2763 0 0 
71.6239 20.5 0 
59.2681 13.6806 0 
65.3334 18.5863 0 
75 21 0 
54.1544 2.82857 0 
55.4686 8.00635 0 
54.908 6.61503 0 
56.0291 9.39767 0 
73.2341 21.2 0 
53.7219 1.41428 0 
56.5897 10.789 0 
61.8024 16.7746 0 
57.2224 12.079 0 
63.8482 18.3761 0 
59.7566 15.1731 0 
67.3791 20.1878 0 
74.1171 21.6 0 
53.7886 4.61671 0 
53.2895 0 0 
71.7795 21.6 0 
57.7829 13.4704 0 
53.2285 2.43916 0 
65.8939 19.9776 0 
75 22 0 
62.363 18.1659 0 
60.3172 16.5644 0 
73.0785 22.1 0 
52.7961 1.02487 0 
53.9834 7.79616 0 
54.5439 9.18748 0 
64.4087 19.7674 0 
58.2714 14.9629 0 
70.3248 22 0 
53.4228 6.40485 0 
73.9615 22.5 0 
55.1045 10.5788 0 
69.1323 21.7896 0 
52.7351 3.7382 0 
52.3026 0 0 
67.9397 21.5791 0 
55.6651 11.9701 0 
71.6239 22.5 0 
52.3026 2.04975 0 
60.8778 17.9557 0 
62.9235 19.5573 0 
58.832 16.3542 0 
75 23 0 
66.4545 21.3689 0 
56.2257 13.3614 0 
72.9229 23 0 
51.8092 1.02487 0 
52.3693 5.52633 0 
64.9693 21.1588 0 
51.8092 3.34878 0 
56.7862 14.7527 0 
73.9615 23.5 0 
61.4383 19.3471 0 
59.3926 17.7456 0 
51.4145 1.8996 0 
51.3158 0 0 
53.0587 8.97729 0 
52.4982 7.58597 0 
53.6193 10.3686 0 
71.2128 23.5672 0 
63.4841 20.9486 0 
54.1799 11.7599 0 
57.3468 16.1441 0 
75 24 0 
50.9211 0.874731 0 
51.3158 4.64782 0 
54.7405 13.1512 0 
72.5118 24.0672 0 
69.5776 23.6331 0 
50.9211 3.19864 0 
68.385 23.4226 0 
59.9531 19.1369 0 
61.9989 20.7384 0 
55.301 14.5426 0 
57.9074 17.5354 0 
51.4447 6.70746 0 
67.1321 23.2061 0 
50.5263 1.74946 0 
73.5504 24.5672 0 
50.3289 0 0 
65.6469 22.9959 0 
55.8616 15.9339 0 
75 25 0 
51.5735 8.7671 0 
52.1341 10.1584 0 
49.9342 0.874731 0 
52.6947 11.5497 0 
60.5137 20.5282 0 
58.4679 18.9267 0 
72.1008 25.1344 0 
53.2553 12.941 0 
49.8355 3.34878 0 
56.4222 17.3252 0 
53.8158 14.3324 0 
70.4655 25.2003 0 
73.5504 25.5672 0 
49.4408 1.8996 0 
49.3421 0 0 
63.815 23.2124 0 
59.0285 20.318 0 
49.9595 6.49727 0 
54.3764 15.7237 0 
61.0743 21.9195 0 
56.9827 18.7165 0 
75 26 0 
68.8303 25.2661 0 
49.3989 5.10595 0 
67.5774 25.0496 0 
48.8487 1.02487 0 
62.3298 23.0022 0 
50.6489 9.94823 0 
66.3246 24.8331 0 
50.0883 8.55691 0 
51.2095 11.3395 0 
54.937 17.115 0 
51.7701 12.7309 0 
72.4347 26.4726 0 
59.5891 21.7093 0 
57.5433 20.1078 0 
48.3553 0 0 
52.3306 14.1222 0 
48.3553 2.04975 0 
70.9797 26.4993 0 
55.4975 18.5063 0 
73.8843 26.9053 0 
75 27 0 
52.8912 15.5135 0 
47.8618 1.02487 0 
69.3444 26.5651 0 
64.4926 25.0496 0 
58.1039 21.4991 0 
47.9186 3.80692 0 
53.4518 16.9048 0 
68.3162 26.5651 0 
60.1497 23.1006 0 
56.0581 19.8976 0 
67.0633 26.3486 0 
49.1637 9.73804 0 
49.7243 11.1294 0 
47.3684 0 0 
48.6031 8.34672 0 
50.2849 12.5207 0 
47.3684 2.04975 0 
61.4051 24.1834 0 
66.035 26.3486 0 
48.0426 6.9554 0 
54.0123 18.2961 0 
50.8454 13.912 0 
72.7686 27.8107 0 
73.8843 27.9053 0 
75 28 0 
47.482 5.56409 0 
71.3136 27.8374 0 
62.6606 25.2661 0 
58.6645 22.8904 0 
51.406 15.3033 0 
56.6187 21.2889 0 
46.875 1.02487 0 
46.9318 3.80692 0 
69.8586 27.8642 0 
54.5729 19.6874 0 
51.9666 16.6946 0 
68.8303 27.8642 0 
46.3816 0 0 
64.203 26.5651 0 
46.3816 2.04975 0 
67.802 27.8642 0 
57.1793 22.6803 0 
52.5271 18.0859 0 
48.2391 10.9192 0 
59.6464 24.5 0 
47.6785 9.52785 0 
48.7997 12.3105 0 
72.856 28.9053 0 
75 29 0 
73.9717 29 0 
47.1179 8.13653 0 
66.7737 27.8642 0 
49.3602 13.7018 0 
71.8278 28.9053 0 
45.8882 1.02487 0 
60.9019 25.5828 0 
46.5574 6.74521 0 
49.9208 15.0931 0 
63.0719 26.7325 0 
70.3727 28.9321 0 
53.0877 19.4772 0 
65.7455 27.8642 0 
69.3444 28.9321 0 
62.1465 26.5651 0 
50.4814 16.4844 0 
58.1612 24.2899 0 
45.3947 0 0 
45.7749 5.05301 0 
45.3947 2.04975 0 
68.3162 28.9321 0 
54.7594 21.7738 0 
51.4788 18.4418 0 
64.6143 28.0315 0 
67.2879 28.9321 0 
45.2247 3.29583 0 
75 30 0 
73.9717 30 0 
72.9434 30 0 
44.9013 1.02487 0 
71.9152 30 0 
46.7539 10.709 0 
47.3145 12.1003 0 
66.2596 28.9321 0 
46.1933 9.31766 0 
70.8869 30 0 
47.875 13.4916 0 
52.0394 19.8331 0 
59.1432 25.8994 0 
55.3199 23.1651 0 
45.6327 7.92634 0 
69.8586 30 0 
48.4356 14.8829 0 
63.4832 28.1989 0 
65.2313 28.9321 0 
44.4079 0 0 
60.3877 26.8818 0 
53.2742 21.5636 0 
68.8303 30 0 
44.4079 2.04975 0 
62.5578 28.0315 0 
48.9962 16.2742 0 
56.4771 24.5037 0 
44.8502 6.23413 0 
67.802 30 0 
61.6323 27.8642 0 
44.2378 3.29583 0 
49.9936 18.2316 0 
64.1002 29.0994 0 
43.9145 1.02487 0 
66.7737 30 0 
59.3793 26.9231 0 
44.0678 4.54192 0 
50.991 20.1889 0 
60.6239 27.9055 0 
65.7455 30 0 
63.0719 29.0994 0 
57.4591 26.1133 0 
45.8292 11.8901 0 
45.2687 10.4988 0 
46.3898 13.2814 0 
43.4211 0 0 
52.2258 21.9194 0 
44.7081 9.10747 0 
43.4211 2.04975 0 
46.9504 14.6727 0 
62.1465 28.9321 0 
58.4385 27.0222 0 
64.7172 30 0 
44.1475 7.71616 0 
47.511 16.0641 0 
59.6155 27.9468 0 
43.251 3.29583 0 
53.4606 23.65 0 
63.6889 30 0 
42.9276 1.02487 0 
61.1182 28.9321 0 
48.0715 17.4554 0 
43.365 6.02395 0 
54.6178 24.9885 0 
49.069 19.4127 0 
62.6606 30 0 
58.6747 28.0459 0 
50.8222 21.6733 0 
42.4342 0 0 
60.1098 28.9734 0 
55.775 26.3271 0 
42.4342 2.04975 0 
52.057 23.4039 0 
56.7544 27.236 0 
44.344 11.6799 0 
49.6295 20.804 0 
44.9046 13.0712 0 
61.6323 30 0 
43.7834 10.2886 0 
45.4652 14.4625 0 
43.2228 8.89729 0 
57.7339 28.1449 0 
46.0258 15.8539 0 
59.1213 28.9734 0 
41.9408 1.02487 0 
42.6622 7.50598 0 
46.5863 17.2452 0 
60.604 30 0 
55.9067 27.3302 0 
52.3471 24.5393 0 
53.1846 25.3346 0 
47.1469 18.6365 0 
41.7707 4.59487 0 
56.8861 28.2391 0 
41.4474 0 0 
58.1804 29.0725 0 
50.6533 23.1578 0 
41.3487 1.8996 0 
59.6155 30 0 
54.3417 26.6731 0 
55.1468 27.4186 0 
47.7075 20.0278 0 
49.4607 22.2884 0 
57.2873 29.0725 0 
56.0384 28.3333 0 
43.4194 12.861 0 
42.8588 11.4697 0 
43.98 14.2524 0 
40.8553 0.874731 0 
58.627 30 0 
50.9434 24.2932 0 
40.9539 3.34878 0 
42.2982 10.0784 0 
44.5406 15.6437 0 
48.2681 21.4191 0 
41.7376 8.68711 0 
45.1011 17.035 0 
41.068 6.0769 0 
40.4605 0 0 
56.4396 29.1666 0 
55.2785 28.4216 0 
41.177 7.2958 0 
57.7339 30 0 
45.6617 18.4263 0 
40.2632 1.74946 0 
51.2336 25.4286 0 
52.071 26.2239 0 
52.9085 27.0192 0 
46.2223 19.8176 0 
49.2716 23.6764 0 
53.7135 27.7646 0 
55.6371 29.1666 0 
56.8408 30 0 
54.5186 28.51 0 
39.8684 0.874731 0 
[...]
POINT_DATA 2394
SCALARS cohesion float 1
LOOKUP_TABLE default
25.2896
25.0772
26.3227
26.4588
24.8937
32.7042
26.5917
33.2658
24.9599
34.0157
35.6061
26.4999
33.9178
24.5227
28.5799
32.0547
37.7889
28.5709
29.5007
24.1186
34.2157
31.834
34.6169
28.3545
40.026
37.1831
24.7415
33.7844
38.5214
35.2155
42.3594
33.6005
26.0601
29.6547
25.2807
26.6041
34.8437
27.5835
32.3902
33.6564
26.13
27.0474
43.0444
25.9173
28.0657
39.2599
35.9309
49.1104
28.3759
26.0784
28.319
26.5048
28.2607
36.4575
38.517
30.8334
42.8229
33.9362
33.676
29.3444
26.211
32.3493
40.5788
27.1381
35.8563
37.0132
35.8435
37.7306
26.9441
37.1836
34.7695
47.0665
34.9465
37.4998
27.3391
42.6485
30.2839
35.028
42.8048
36.4424
29.4323
27.4264
40.5812
28.2061
32.6483
28.8633
29.0264
38.2746
47.6165
32.0277
41.4327
42.514
27.9588
37.6566
38.0509
33.272
29.683
32.5539
34.5534
33.6746
40.1095
33.8557
40.0953
35.1617
44.3054
34.5921
28.9774
38.4989
30.3483
40.4923
30.8955
40.2709
32.6483
38.9873
33.0634
26.8897
27.3233
30.0346
35.4599
26.7932
38.898
37.585
41.1934
42.765
29.878
31.4089
42.6412
26.2483
30.4441
39.1251
27.6209
34.1045
27.6829
30.9786
37.9762
30.9912
28.2736
36.7902
32.5815
43.9241
45.5553
29.7985
27.7967
37.0613
39.6281
26.9507
28.2532
35.6218
37.0557
31.1217
31.647
46.725
28.2202
29.7446
29.2694
32.9736
30.9954
45.5775
40.9133
30.7804
28.7041
35.8736
31.2433
34.7366
31.757
31.973
31.3178
47.6361
44.2036
30.9393
30.0654
29.8445
47.8439
34.1249
35.077
32.1961
37.3642
26.7311
30.6269
33.7837
34.4443
37.0975
26.2528
31.9893
31.7203
49.9197
31.544
31.7423
31.1004
22.8173
49.1548
27.2026
34.1359
22.4811
39.3828
38.5852
42.7876
22.3286
41.6228
31.4595
22.2124
32.4595
32.9866
31.598
46.0036
32.0666
24.1469
23.9755
45.3583
35.0687
31.72
34.2295
34.4678
45.7053
41.1445
26.223
33.0232
35.7877
39.3799
26.591
38.8493
43.8741
32.1753
23.1112
28.8469
27.4776
34.6828
36.3369
27.8333
33.9951
29.4188
37.9457
24.7277
27.0623
55.3662
36.1908
33.0183
41.6688
27.9939
30.8793
44.2303
36.6201
38.6957
27.1972
36.6446
29.2104
27.2835
39.012
34.4018
29.6948
40.7242
45.2585
28.5711
26.5931
30.9878
38.1211
26.963
28.3922
38.4978
42.2006
29.1979
35.9901
29.8619
37.0713
24.6606
51.15
31.0056
46.7504
33.0204
30.8636
37.2024
26.4393
36.6606
34.6178
30.9796
40.58
23.8809
29.2278
42.3614
24.8354
27.1127
43.3773
29.3208
52.2367
35.1659
26.4356
33.7828
36.9365
32.825
32.5555
43.4418
37.8035
55.341
30.3959
30.8808
38.2533
42.6359
28.4267
26.4398
44.2099
44.052
29.6077
31.6978
52.989
31.0949
36.2022
34.9471
35.279
37.8775
35.9198
30.0776
29.3326
27.8165
30.9082
29.1252
45.5712
26.0303
44.5693
60.1123
25.2408
38.9151
38.6314
38.0247
30.5697
46.6965
49.9946
38.7534
33.9604
34.0185
26.563
31.7422
31.7778
31.5358
41.4423
38.6631
48.9191
32.1576
38.9111
24.1081
35.6213
44.6145
36.7899
23.6398
31.1796
59.0235
37.3265
43.705
43.0375
40.3093
44.962
22.5243
34.0124
42.8667
31.0018
34.1201
36.2097
24.6995
38.6089
20.5788
20.3272
49.6633
22.6527
26.0477
37.1364
33.4786
51.9198
43.1002
26.3811
34.3957
46.3424
27.1897
57.1635
45.9364
31.8903
42.4687
44.5228
35.8988
41.1993
27.588
36.1563
39.4451
33.1039
25.3421
25.0905
25.4364
42.7116
27.0495
41.3779
32.0729
49.316
32.7349
22.1942
53.0859
29.4212
48.8839
44.0609
30.3691
30.403
27.0912
35.5921
30.8375
27.4952
40.1187
49.8557
42.2547
52.5521
41.2791
23.3481
22.3452
22.5326
41.7097
30.0688
33.9457
24.3661
22.2835
37.8301
35.9674
44.0365
26.354
25.2474
52.4294
30.699
25.3987
29.0118
45.7223
38.9073
31.1464
45.3309
33.748
25.318
28.2325
40.7709
32.6225
25.1205
54.7671
20.2428
20.1698
19.8013
22.4634
19.772
53.5579
39.0194
24.7794
47.3547
19.5077
34.5102
51.8535
36.1246
26.4568
39.2085
19.753
38.4229
34.6051
23.972
30.3076
28.9835
30.0463
19.2855
34.2792
34.213
47.5281
34.1642
38.3724
18.995
34.6621
61.0541
37.6243
22.1247
22.6807
18.037
27.9147
47.5693
52.8207
35.6365
17.8143
22.1738
29.9153
38.818
54.8252
36.3142
32.04
27.2958
45.3923
35.7199
33.5348
24.1027
27.2465
17.7563
37.7273
48.1821
37.1169
59.08
26.3083
18.1656
22.9383
24.4726
32.9756
40.5768
30.3395
49.7894
17.3189
35.4033
30.4061
31.8658
23.9123
25.0146
38.2691
25.9231
25.3809
38.032
38.4803
39.4567
17.003
55.4467
29.9778
42.8048
35.5487
48.3725
23.4987
23.0609
36.0095
31.5661
16.8907
26.7786
30.0541
28.7292
39.201
47.2489
32.1289
32.9635
22.2381
24.4747
33.9842
17.2097
22.5057
25.2712
43.8448
26.9893
21.6779
30.3482
41.2266
40.4465
29.2357
23.5519
17.1371
32.6927
60.9081
52.5111
45.2396
33.6023
42.3297
31.97
42.7217
31.4592
21.0582
30.0752
36.7312
17.3989
34.6966
29.6991
29.6743
27.6607
22.2121
43.9076
29.1104
29.622
20.9799
17.2177
29.9863
23.2815
61.1147
25.1448
34.7613
43.5695
28.4558
40.9886
32.3007
43.1586
17.377
20.6048
32.4242
31.0194
27.0483
50.0195
32.657
32.8567
41.4939
31.8483
44.0163
27.8835
33.3499
27.109
33.6156
42.6636
21.5726
17.7096
36.4276
22.1168
26.7792
43.9577
59.0545
25.2277
18.195
32.8127
36.4171
22.1198
27.5921
30.871
35.8465
31.5865
30.6289
42.973
37.8172
18.1547
22.98
41.8051
34.1158
28.1914
36.7952
34.5049
29.3827
45.1244
29.8684
33.6158
21.3541
18.7882
44.5899
48.5652
23.9443
39.4038
43.5747
36.1353
28.2662
35.8823
31.2851
29.5478
37.437
19.2035
30.4119
25.7596
25.1991
43.7231
27.9697
37.1298
33.2326
28.6334
41.8033
31.6409
20.1499
25.3807
21.7125
32.692
32.9321
28.8455
42.0159
34.6302
41.7984
20.4608
26.836
26.4351
32.0739
40.8251
43.3836
37.452
29.7129
31.5445
33.1935
37.4405
21.4917
27.2761
39.0093
34.4241
54.6242
26.7877
26.9111
38.3116
28.1891
45.7039
31.7588
22.4202
30.9695
21.7397
27.4245
34.2603
20.363
31.8491
22.733
44.5563
34.6687
29.0966
30.8234
37.057
26.8612
31.6627
29.2423
35.7715
34.3021
23.2515
39.5628
31.537
25.1398
28.2931
39.4744
27.4229
39.8894
40.0096
27.2452
38.1999
24.0642
34.5657
24.9791
31.9447
43.1005
33.3768
39.411
27.8567
38.5194
34.6749
34.7542
24.3155
31.0723
17.9033
28.253
27.4894
32.6832
34.4105
39.0472
22.6532
37.9747
24.707
38.6246
41.7819
33.1148
30.5518
33.8961
27.2883
29.0338
24.9622
37.2591
31.0602
26.2996
26.8687
27.4076
31.4999
29.8438
25.3569
33.1513
34.2611
33.7568
26.5233
33.6636
28.0896
28.9897
36.4116
40.4017
22.5994
40.3585
31.2543
29.6415
25.4771
32.8916
38.4456
39.2962
36.2058
28.2396
36.8191
40.6805
31.0789
25.5053
32.8357
36.5599
33.611
16.9694
27.9048
34.9842
26.8551
30.7647
25.6427
40.2007
39.4182
27.9491
37.2259
36.0247
33.8667
30.4783
25.7709
36.4312
32.1308
27.6633
33.3009
30.126
26.0889
25.8754
37.2566
28.0273
31.4492
31.9734
27.6811
27.4078
23.5938
29.3387
25.9301
29.8056
33.5789
38.8666
31.8221
27.4372
32.5277
29.4956
26.0078
36.4963
27.4382
38.61
33.4725
26.0133
29.1822
26.2359
33.2027
29.0531
30.5659
27.2262
34.4292
31.7037
28.9204
26.077
27.6296
27.2327
30.2578
16.5587
37.1516
36.3887
33.098
26.0606
44.5494
28.6758
36.0637
37.2367
30.077
27.0403
37.6973
31.5111
33.3889
37.0735
28.42
26.1158
27.0468
28.3054
25.2924
26.2092
26.0975
28.1803
31.5148
33.7084
29.8326
26.893
31.3707
37.0528
26.1283
31.5776
28.0732
29.723
20.9506
26.8983
32.2168
34.072
37.1353
35.1571
26.1046
27.9526
34.0716
29.6581
26.8283
32.9336
30.2382
26.1136
27.9102
26.0198
33.7783
26.8835
28.711
26.1303
27.8554
31.5174
38.1337
26.8463
25.4233
28.421
26.1741
25.6678
28.9892
25.4706
31.5146
26.8885
33.1389
26.2042
24.7759
27.2984
34.2402
28.9907
31.8222
26.2449
27.3546
24.5639
23.8391
29.0091
26.2585
26.1788
28.8502
24.5932
27.3543
25.1404
33.1886
26.1046
29.598
26.29
16.5888
32.3259
25.16
22.9003
27.3878
33.9382
23.4476
30.23
26.2982
24.022
37.6995
27.8577
25.0464
32.3286
37.5051
26.3154
23.8832
33.1848
29.9917
36.3904
33.3245
25.0554
21.784
27.8695
32.5307
22.2299
35.2695
25.1766
52.3208
23.7508
26.3222
29.5569
36.9367
29.7868
22.12
27.7104
24.2446
26.3262
20.8693
30.434
22.9193
24.991
28.0464
33.2939
27.6942
24.2205
21.4097
32.6278
26.3102
32.1539
31.1105
36.5684
24.7082
22.1199
33.7466
28.2617
26.2927
22.5668
32.5608
20.1914
39.5545
24.6729
33.4574
35.7299
30.5336
37.5887
27.244
30.415
28.1874
23.025
20.4449
26.2554
29.0783
32.7871
24.4485
29.967
21.0051
22.7769
27.7532
32.3452
26.2443
19.6842
19.8877
21.3301
19.0856
26.5179
24.3714
30.8776
22.525
33.6538
19.9427
27.6427
26.1747
30.8936
21.1475
24.0782
31.7195
20.3258
22.2562
28.3979
33.7347
37.7734
26.1188
20.9123
24.6349
19.2785
23.9736
35.5982
31.2138
21.9336
22.3784
35.879
28.2092
19.2867
25.9832
33.0474
33.9161
38.515
27.8137
23.6195
21.5996
19.7214
30.7453
39.3959
43.1703
27.8675
50.6145
25.8947
20.1743
19.5039
23.4256
29.298
21.342
31.2246
19.1808
27.6139
20.0489
37.6764
34.3713
25.696
22.9656
19.5217
26.1158
28.0294
34.8928
19.2589
21.045
32.6752
29.3607
34.3469
31.6622
39.2057
28.052
19.8701
25.4728
28.2865
22.6958
20.3792
20.8438
24.1606
25.7083
34.4924
19.5946
27.3919
31.4019
27.7206
25.0933
25.0379
22.1931
20.6168
19.178
37.67
30.0637
37.7533
19.3817
30.9759
27.5898
34.5229
24.6287
22.3487
21.8941
34.7318
38.1911
20.4021
32.7733
36.7263
20.3565
19.3339
44.1316
17.3416
27.077
30.53
24.0162
21.3862
19.3024
20.1897
63.1917
31.5092
19.3174
26.6948
23.3023
29.5881
26.5054
21.1414
25.4962
19.9193
34.4865
28.1189
26.8735
34.6508
26.2116
34.0692
36.4626
30.4473
26.0023
32.2745
30.2173
30.8423
22.8497
23.2779
22.5622
25.9563
20.7666
32.3534
19.7304
29.0448
20.2597
38.711
33.5275
19.6182
21.8308
20.4593
19.5583
17.467
25.151
28.4126
30.9421
36.8717
36.0381
35.6419
19.8239
33.3972
26.0295
41.0052
21.751
20.1214
19.5232
35.3836
21.2941
32.6721
64.6454
23.9589
27.1621
26.6335
20.2823
27.2522
32.3298
31.2221
39.2119
19.5402
19.8697
26.916
27.5321
28.5774
20.7283
33.9423
23.035
35.3042
35.9315
25.5916
35.4968
23.5119
31.7871
17.6779
34.6971
30.9824
30.5422
19.7843
19.6401
21.2129
33.7803
21.1339
20.2882
21.7529
32.3209
24.579
33.3781
27.1262
37.1894
20.1583
28.7472
22.2543
38.778
19.6032
26.1955
25.4336
19.8333
34.3149
33.8421
55.1934
32.1384
20.9392
39.5786
22.9369
52.7954
26.3946
21.0418
23.6606
19.7831
31.9779
27.0537
19.5272
17.9961
29.1729
27.2587
27.0914
31.8803
20.2393
21.3293
25.636
31.2231
22.0876
30.3412
37.4489
37.974
20.2543
30.0476
19.3174
26.8757
32.7521
20.0923
19.6324
29.0014
35.1181
47.5367
38.0392
23.9644
20.1041
35.6558
34.7088
21.2678
24.2172
45.1013
28.0114
32.7519
19.6077
31.0742
61.4379
35.8784
18.1629
31.7362
19.231
26.9226
32.1062
26.2143
29.6386
19.6888
22.7944
45.8097
30.6698
21.7807
20.203
25.3371
33.9688
30.0405
35.8224
19.2674
51.2701
17.7092
31.2365
42.8293
35.9291
27.0538
19.2001
29.274
27.0117
37.8943
27.3331
37.2205
21.9374
18.1752
35.7037
28.8134
26.9289
51.9774
25.1597
23.799
39.3131
19.9874
63.7129
36.0545
30.7407
24.6396
39.398
43.3049
30.2383
19.1873
41.0548
26.0623
51.2148
24.4161
33.8313
19.3401
30.6995
36.9425
31.4222
28.6378
21.7965
34.9042
20.3745
31.4601
48.8085
19.8964
18.0467
44.6872
21.1988
27.739
19.3895
31.5465
37.8708
52.5017
19.3789
36.2702
24.5131
38.0708
37.8146
29.0249
24.4347
29.1723
36.648
34.8734
54.1172
24.5795
46.0662
35.9649
29.9205
57.0619
22.2565
45.905
31.8437
40.9535
20.0262
30.0283
31.3586
61.721
28.654
37.5892
29.3564
28.3234
27.306
17.8929
25.0552
48.9465
26.2388
29.6508
22.556
35.1101
21.5221
35.4041
25.9046
43.898
19.0047
34.2832
32.7998
41.0834
20.6943
29.932
27.5696
25.042
35.3109
42.3679
35.3416
40.9619
33.5111
38.7578
30.4223
46.978
30.9471
46.0369
54.5872
26.6413
72.8336
25.8187
26.085
54.2297
27.5449
44.6734
37.2894
34.7696
17.6408
31.9358
35.2126
42.2663
33.7053
25.9801
51.237
21.2865
35.4175
26.1896
27.9437
19.3436
54.6058
30.8872
49.2025
40.5365
28.6705
27.3506
26.1563
23.4934
32.4607
37.5308
26.4872
44.5889
53.8445
23.788
27.4314
46.8132
39.5601
52.7664
40.7759
52.8522
35.0367
27.53
40.1808
35.793
35.6939
23.7616
30.812
44.8573
23.7577
39.9197
17.2085
56.5392
63.1272
24.5917
51.2799
46.3569
22.9287
26.8831
43.0258
28.7491
34.8449
31.6145
55.0952
34.3477
33.3523
49.6097
54.67
24.2001
23.8137
26.4234
36.7298
44.2087
27.3621
25.0351
23.596
54.4747
37.4918
19.8644
48.1674
55.6219
23.1488
23.7026
27.2897
49.0839
53.5963
32.7873
27.3921
44.8227
28.4161
25.5059
36.7035
26.8801
16.8005
33.5981
40.5031
56.0853
27.7012
26.972
38.3287
30.21
24.5155
24.7786
52.2318
52.5734
40.255
25.6493
34.2941
35.3518
41.2075
51.2581
56.0251
29.9341
30.8626
25.0563
23.9011
59.8004
49.6828
26.1843
25.5385
54.8219
21.9618
31.6272
36.8647
27.151
37.4654
44.9182
25.1167
55.2613
45.8474
23.3484
33.9187
22.4546
32.8749
26.9311
55.856
24.5803
53.7255
47.7195
25.1595
20.3332
36.5679
16.6899
23.0524
26.9282
56.6197
29.6312
24.6088
26.7636
27.7995
50.1606
32.6106
25.1037
24.9698
30.6843
37.0973
33.4877
28.1446
39.0818
27.9638
23.6413
45.7683
31.0984
40.5476
27.3712
24.4397
26.9941
27.3945
21.686
40.2413
26.5969
50.2308
25.0033
32.1283
33.4005
27.2584
24.0109
40.4063
36.8994
39.1444
62.1655
54.9636
32.3253
24.636
24.4071
38.0484
27.7976
27.1906
26.7214
26.9769
37.1236
54.2336
25.2248
24.0087
37.9657
39.4941
16.3906
32.2527
24.4751
28.2496
24.6781
24.6022
45.4393
26.9736
24.7542
21.5645
25.2586
27.4973
30.7049
43.7406
24.6372
32.2471
53.4043
24.9577
38.1754
30.2659
28.1678
27.0851
26.4372
25.2869
33.88
20.4258
27.2486
25.2933
33.8064
34.8519
26.6963
24.4631
28.6335
24.5388
26.6921
50.839
35.3901
27.6657
23.8995
27.9007
27.0447
27.126
25.3553
24.251
27.0668
32.4659
36.934
37.6867
32.1713
25.646
24.7352
52.0826
30.3328
25.4844
42.6519
16.0039
51.3394
27.0123
27.1909
24.8588
27.1916
50.3794
37.4203
25.9053
24.2351
24.5138
34.5903
25.5506
31.0581
19.5989
27.0434
35.0254
27.276
29.9212
54.8226
27.1908
43.9284
24.6398
26.2025
24.3797
25.6603
20.5105
25.4896
27.2687
27.0496
28.7897
24.5992
37.4871
27.1812
24.9217
24.9555
25.7894
26.0457
28.0687
32.1683
25.5333
26.7304
15.557
31.93
24.9173
27.4403
24.5768
25.386
24.9919
25.9697
25.9806
30.2292
25.4651
54.6007
36.1675
24.8691
28.8659
35.1693
44.3226
27.2493
43.3158
32.0437
31.7867
61.9111
25.5096
26.0838
42.554
26.6857
25.5029
39.3248
21.617
25.0741
25.2582
27.1418
24.813
20.1538
38.3227
44.4956
25.4748
26.1961
25.5663
25.0412
26.1846
25.2202
28.0866
35.1348
26.1446
15.623
31.1752
49.3376
25.6354
25.1715
25.4191
29.2337
25.3758
25.9493
36.5972
27.5409
38.3012
24.8552
26.3599
30.4636
25.0401
44.7493
26.0265
25.8239
28.4403
36.6245
25.0932
26.5433
26.0123
27.4573
25.7918
28.4468
37.5621
36.9697
18.7779
27.6968
26.572
25.075
38.722
25.0161
26.2722
61.952
26.6176
46.7041
25.8119
45.1303
25.3393
26.6137
28.1223
46.4687
25.8949
20.8143
26.527
25.3013
49.4856
19.8711
39.8723
34.7845
32.2763
25.3966
26.6789
25.96
26.6523
25.3983
35.2519
29.0292
26.7526
28.3068
26.6548
25.9093
25.4027
26.0333
26.9229
41.8991
30.1811
26.7656
27.2697
25.966
25.5296
46.8949
17.2963
27.0963
30.0572
26.1424
25.924
27.7817
25.5051
27.1822
31.6932
26.4898
26.269
33.963
34.9696
27.4268
36.299
27.1708
50.5572
25.5756
58.2546
26.5929
20.8946
19.4121
26.8543
48.4715
31.5627
42.0505
25.4379
28.8599
27.722
26.6679
28.0671
42.1323
26.8677
34.6722
25.5769
30.9175
25.4634
27.8714
31.5535
51.329
28.7864
26.6007
39.7579
30.2032
25.5703
19.2617
28.0037
35.593
27.4124
46.3918
26.3648
26.7658
28.2385
25.8057
29.8678
45.7528
27.2825
26.9168
27.8246
27.9278
18.1205
25.6143
39.6994
27.3297
28.4213
30.3773
23.5185
32.7114
44.8989
41.5737
27.4506
64.8931
28.0238
42.3292
25.7671
35.286
28.7745
49.5731
21.3597
28.0575
27.3109
21.3746
27.4851
32.5851
35.7829
31.2717
25.7201
49.2757
28.9825
30.7719
26.3376
40.0321
27.432
28.7934
27.0872
26.025
40.401
45.676
29.3522
28.9063
18.4543
27.7667
41.5398
27.2671
23.6967
25.876
28.3012
31.2361
29.3457
27.9584
45.3044
28.918
43.4761
38.7747
26.0714
27.8486
33.2639
61.5004
41.3226
29.4986
22.7202
30.3993
54.9725
18.7612
45.7079
47.5246
25.8025
36.668
24.1347
31.5241
28.3097
47.2922
29.8851
26.6865
19.0727
36.0298
30.0083
42.817
26.1632
47.7116
23.3299
32.4511
29.4854
28.1975
46.6492
31.0091
27.4195
30.7837
47.932
29.8196
26.0994
30.1729
37.9403
23.2494
26.1301
30.1451
28.5278
21.1481
30.998
41.2728
44.4159
55.5486
40.031
70.1956
26.1965
37.8939
30.3022
45.2242
19.994
23.2225
27.6294
43.4249
29.4164
43.0145
31.8612
32.2109
25.6073
25.5677
30.4724
38.2246
26.2449
49.9614
31.7197
34.8554
29.5288
27.427
24.4879
29.0524
25.8034
44.1414
48.15
26.7239
30.4477
30.5899
25.8207
29.7196
21.52
25.2771
42.4599
51.5832
30.5924
47.9046
71.4372
32.9971
21.907
38.589
51.3002
47.4319
44.5224
31.05
53.6263
29.7595
31.1255
26.7095
31.098
26.7443
25.5178
24.5854
39.3232
37.6341
32.2973
27.7364
23.9041
31.1975
28.6402
28.3163
25.1901
42.6932
32.7911
22.6014
41.4686
27.8148
43.1478
28.4567
31.5355
33.5319
28.546
25.7316
21.365
48.0402
33.9842
49.9831
42.7248
44.1768
65.5397
59.9343
31.723
25.5951
42.7528
26.9111
38.1533
28.9358
25.2832
25.2771
34.4617
49.6785
31.8634
47.0523
32.2352
26.7108
26.253
24.0875
28.9896
30.1816
23.186
25.4506
34.7176
45.6757
42.5331
25.8729
32.2275
47.4926
30.5287
39.4912
29.8524
44.2206
23.6404
24.8062
34.6683
25.662
38.4672
30.2406
28.0726
33.1322
22.4989
53.542
43.6781
55.1993
30.021
24.981
56.4087
48.0703
25.4729
24.0121
35.4909
43.1064
25.4805
33.9908
31.9059
34.057
30.0106
41.4979
41.7355
37.0946
24.5972
23.8137
32.1109
24.8566
25.6801
30.3329
48.546
35.0298
43.6093
39.638
25.0116
34.6133
28.628
55.5258
23.6103
24.6081
43.783
26.3663
31.2185
25.1575
37.8013
69.2065
41.2233
21.3884
26.3211
25.1033
34.1816
34.5536
27.4995
38.9381
43.6669
25.1406
37.1516
31.2745
46.9835
40.5272
49.7143
28.8154
41.8996
39.2763
40.8214
25.4668
26.6096
24.8612
41.4932
44.4976
23.4939
31.6215
53.0545
23.7131
21.5513
26.3527
55.8275
23.3122
45.6017
25.208
41.3623
40.9648
44.283
34.0542
48.293
39.8625
38.3897
33.6785
35.4973
37.2947
42.9003
37.9276
23.904
38.874
36.0301
39.0195
42.0671
24.9002
36.023
43.0568
25.3306
46.18
24.4973
27.0757
25.1509
43.1765
66.3263
42.5431
33.9028
43.1398
20.7984
43.542
25.0387
23.4168
37.4105
24.8137
57.675
39.1362
35.1883
38.7035
25.354
37.1263
37.3897
42.4484
44.4792
49.5557
24.0997
32.8772
41.8215
44.7114
24.4575
49.8922
27.3852
25.0631
51.9991
35.5597
23.968
38.8097
37.0262
40.9466
23.2156
42.6216
24.9496
62.8163
41.6587
40.2953
40.7894
42.1392
32.6032
35.1918
45.3772
32.5699
36.4832
24.4782
20.762
37.4506
54.4467
36.6423
29.7879
34.8624
24.8882
50.5216
24.2553
41.3111
38.8652
31.1734
25.0249
45.7353
43.082
23.928
36.6415
57.6321
42.3213
24.3784
44.2628
26.3274
30.3727
57.2317
41.7639
21.2074
30.6225
24.3617
50.5278
37.6015
23.048
23.9379
40.2018
35.4259
49.4684
27.0369
42.892
42.5048
24.2182
31.3351
24.3652
23.0149
25.811
41.2155
22.7037
24.6274
43.9355
35.1904
25.6678
30.5853
39.0904
23.8115
30.2471
25.3139
25.4571
22.6228
21.1235
23.6354
25.4483
36.5791
32.0548
40.8503
35.5891
25.4714
25.2166
21.7507
28.1685
37.0117
25.6755
26.4187
23.6885
34.764
23.1786
25.8956
24.9108
36.5342
21.6635
27.3433
26.635
23.1343
25.3806
25.8345
31.9892
34.5621
36.3597
23.9887
27.6061
20.7662
26.1095
42.6224
26.8691
38.2494
35.536
22.3283
26.6405
26.5614
36.3004
27.0898
20.4975
25.0859
25.8311
32.5931
25.2783
38.2306
26.9121
27.1057
19.9466
42.2538
26.4795
42.542
31.2963
29.0743
26.5987
35.2289
24.9243
35.405
20.0379
37.1276
40.3041
27.0828
44.583
33.7705
19.6998
25.0483
32.0522
33.7333
38.0513
33.053
40.1219
41.7091
19.9537
34.2623
24.8825
39.0219
43.0392
34.7108
25.5454
19.6119
32.7065
34.0803
41.0751
25.6873
19.8673
35.2234
39.7405
19.3583
33.2337
27.723
35.8393
19.7679
27.4859
19.8658
SCALARS friction float 1
LOOKUP_TABLE default
10.1151
10.2021
12.5107
12.8817
10.0435
12.6574
13.3479
12.7426
10.2276
12.0578
12.4742
13.691
12.3542
10.1581
12.6008
12.6796
12.4333
14.3396
11.5931
10.3829
9.46372
12.6278
9.57097
14.5224
12.0457
8.57913
9.97107
9.12132
12.3069
9.24232
8.081
11.4013
13.8438
10.4538
9.89263
11.7319
13.0075
11.9767
10.6129
12.4429
13.5019
12.1277
8.23363
9.32042
11.5926
11.3181
12.309
7.45321
11.9239
13.1997
11.7487
9.12705
11.5677
11.6437
11.3888
12.1193
8.23037
12.4612
12.332
11.6318
12.7143
10.956
10.6146
8.62238
10.2297
11.5956
10.9122
10.2095
12.1709
10.6017
10.1177
7.68313
13.869
11.7533
8.55632
10.8488
10.5408
10.9167
9.55029
11.3072
11.3932
11.8
9.97359
11.424
16.7997
7.95397
10.8095
10.9202
7.82586
9.95027
11.4937
10.2024
11.4852
13.9826
10.3226
7.9342
7.86728
19.0051
11.1585
9.26089
10.3733
6.50823
12.732
12.1629
8.46373
6.08991
11.1654
13.6792
5.92014
10.2453
7.45515
10.8853
21.1898
10.6065
5.92868
6.25355
6.37421
10.877
16.3703
6.76875
9.47048
11.9218
12.0902
9.9403
6.90592
7.50792
11.0917