# vtk DataFile Version 3.0
File generated from DClib
ASCII

DATASET UNSTRUCTURED_GRID
POINTS 2394 float
75 0 0 
74.0132 0 0 
75 1 0 
74.0132 1 0 
73.0263 0 0 
75 2 0 
72.9355 1.08748 0 
73.9223 2.08748 0 
72.0395 0 0 
75 3 0 
72.8446 2.17496 0 
71.9486 1.08748 0 
73.9223 3.08748 0 
71.0526 0 0 
75 4 0 
72.8838 3.58748 0 
71.5238 2.50694 0 
70.6278 1.41947 0 
73.9615 4.5 0 
70.0658 0 0 
75 5 0 
71.563 3.91947 0 
72.9229 5 0 
69.641 1.41947 0 
70.203 2.83893 0 
73.9615 5.5 0 
69.0789 0 0 
75 6 0 
69.1476 2.44434 0 
72.9229 6 0 
71.6239 5.5 0 
70.2639 4.41947 0 
68.5855 1.02487 0 
73.9615 6.5 0 
68.0921 0 0 
75 7 0 
68.0921 2.04975 0 
72.9229 7 0 
71.6239 6.5 0 
68.6542 3.74338 0 
67.5987 1.02487 0 
73.9615 7.5 0 
70.3248 6 0 
67.1053 0 0 
75 8 0 
67.5987 3.34878 0 
67.1053 2.04975 0 
68.7151 5.32391 0 
73.0785 8.1 0 
66.6118 1.02487 0 
74.1171 8.6 0 
66.1184 0 0 
75 9 0 
66.6118 3.34878 0 
66.1184 2.04975 0 
71.6239 8.5 0 
67.1053 4.64782 0 
69.1755 7.15213 0 
70.3248 8 0 
73.2341 9.2 0 
65.625 1.02487 0 
74.1171 9.6 0 
67.5657 6.47604 0 
65.1316 0 0 
75 10 0 
65.1316 2.04975 0 
71.7795 9.6 0 
73.0785 10.1 0 
64.6382 1.02487 0 
65.1137 3.65591 0 
73.9615 10.5 0 
65.6071 4.95495 0 
68.0262 8.30425 0 
69.1755 9.15213 0 
64.1447 0 0 
66.0569 6.38442 0 
75 11 0 
71.6239 10.5 0 
70.3248 10 0 
64.1447 2.04975 0 
72.9229 11 0 
63.6513 1.02487 0 
64.1268 3.65591 0 
73.9615 11.5 0 
66.5173 8.21264 0 
63.1579 0 0 
75 12 0 
63.1579 2.04975 0 
64.1089 5.26208 0 
73.0785 12.1 0 
67.2259 9.58662 0 
68.3752 10.4345 0 
62.6645 1.02487 0 
64.5587 6.69155 0 
63.14 3.65591 0 
74.1171 12.6 0 
62.1711 0 0 
65.0085 8.12102 0 
70.3248 12 0 
71.6239 12.5 0 
62.1711 2.04975 0 
75 13 0 
65.717 9.495 0 
68.9358 11.8258 0 
62.6466 4.95495 0 
73.2341 13.2 0 
61.6776 1.02487 0 
63.0969 6.3615 0 
74.1171 13.6 0 
61.6776 3.34878 0 
61.1842 0 0 
66.4255 10.869 0 
63.5467 7.79097 0 
61.1842 2.04975 0 
71.7795 13.6 0 
75 14 0 
73.0785 14.1 0 
60.6908 1.02487 0 
63.9359 9.23812 0 
73.9615 14.5 0 
61.1842 4.64782 0 
66.9861 12.2603 0 
61.6346 6.05437 0 
60.6908 3.34878 0 
70.3248 14 0 
60.1974 0 0 
64.6444 10.6121 0 
71.6239 14.5 0 
62.085 7.46091 0 
60.1974 2.04975 0 
75 15 0 
68.9358 13.8258 0 
72.9229 15 0 
59.7039 1.02487 0 
65.5009 12.0501 0 
62.4741 8.90807 0 
73.9615 15.5 0 
67.5467 13.6516 0 
59.2105 0 0 
60.2109 5.66149 0 
62.8633 10.3552 0 
60.6613 7.06804 0 
75 16 0 
59.1118 1.8996 0 
66.0615 13.4414 0 
69.4963 15.2171 0 
73.0785 16.1 0 
63.7198 11.7932 0 
59.2712 4.40082 0 
61.0276 8.51671 0 
58.6184 0.874731 0 
58.7778 3.10178 0 
68.1073 15.0429 0 
74.1171 16.6 0 
70.3248 16 0 
58.2237 0 0 
71.6239 16.5 0 
64.5763 13.2312 0 
61.4167 9.96386 0 
75 17 0 
66.6221 14.8327 0 
58.0263 1.74946 0 
59.2376 6.67516 0 
62.2346 11.583 0 
73.2341 17.2 0 
57.6316 0.874731 0 
59.6039 8.12383 0 
57.6923 2.95164 0 
58.2979 5.41449 0 
68.6678 16.4342 0 
74.1171 17.6 0 
65.1369 14.6226 0 
63.0911 13.0211 0 
57.2368 0 0 
59.9702 9.5725 0 
71.7795 17.6 0 
57.1382 1.8996 0 
75 18 0 
67.1826 16.2241 0 
69.4963 17.2171 0 
60.8215 11.2716 0 
57.3582 4.15382 0 
73.0785 18.1 0 
56.7434 1.02487 0 
63.6517 14.4124 0 
56.8041 3.10178 0 
57.8154 6.75019 0 
58.376 8.14151 0 
65.6974 16.0139 0 
73.9615 18.5 0 
61.6059 12.8109 0 
70.3248 18 0 
56.25 0 0 
71.6239 18.5 0 
56.25 2.04975 0 
58.7423 9.59018 0 
56.8757 5.48952 0 
75 19 0 
59.3749 10.8802 0 
67.7432 17.6154 0 
72.9229 19 0 
64.2122 15.8037 0 
62.1665 14.2022 0 
55.7566 1.02487 0 
60.1928 12.4994 0 
66.258 17.4052 0 
68.5717 18.3983 0 
73.9615 19.5 0 
55.7563 3.4912 0 
55.2632 0 0 
56.3932 6.82522 0 
56.9538 8.21654 0 
62.727 15.5935 0 
55.2022 2.43916 0 
57.5143 9.60785 0 
75 20 0 
64.7728 17.195 0 
60.6813 13.992 0 
58.147 10.8979 0 
73.0785 20.1 0 
58.7796 12.188 0 
55.3905 5.27933 0 
54.7088 1.41428 0 
66.8186 18.7965 0 
70.3248 20 0 
74.1171 20.6 0 
63.2876 16.9848 0 
61.2418 15.3833 0 
69.1323 19.7896 0 
54.2763 0 0 
71.6239 20.5 0 
59.2681 13.6806 0 
65.3334 18.5863 0 
75 21 0 
54.1544 2.82857 0 
55.4686 8.00635 0 
54.908 6.61503 0 
56.0291 9.39767 0 
73.2341 21.2 0 
53.7219 1.41428 0 
56.5897 10.789 0 
61.8024 16.7746 0 
57.2224 12.079 0 
63.8482 18.3761 0 
59.7566 15.1731 0 
67.3791 20.1878 0 
74.1171 21.6 0 
53.7886 4.61671 0 
53.2895 0 0 
71.7795 21.6 0 
57.7829 13.4704 0 
53.2285 2.43916 0 
65.8939 19.9776 0 
75 22 0 
62.363 18.1659 0 
60.3172 16.5644 0 
73.0785 22.1 0 
52.7961 1.02487 0 
53.9834 7.79616 0 
54.5439 9.18748 0 
64.4087 19.7674 0 
58.2714 14.9629 0 
70.3248 22 0 
53.4228 6.40485 0 
73.9615 22.5 0 
55.1045 10.5788 0 
69.1323 21.7896 0 
52.7351 3.7382 0 
52.3026 0 0 
67.9397 21.5791 0 
55.6651 11.9701 0 
71.6239 22.5 0 
52.3026 2.04975 0 
60.8778 17.9557 0 
62.9235 19.5573 0 
58.832 16.3542 0 
75 23 0 
66.4545 21.3689 0 
56.2257 13.3614 0 
72.9229 23 0 
51.8092 1.02487 0 
52.3693 5.52633 0 
64.9693 21.1588 0 
51.8092 3.34878 0 
56.7862 14.7527 0 
73.9615 23.5 0 
61.4383 19.3471 0 
59.3926 17.7456 0 
51.4145 1.8996 0 
51.3158 0 0 
53.0587 8.97729 0 
52.4982 7.58597 0 
53.6193 10.3686 0 
71.2128 23.5672 0 
63.4841 20.9486 0 
54.1799 11.7599 0 
57.3468 16.1441 0 
75 24 0 
50.9211 0.874731 0 
51.3158 4.64782 0 
54.7405 13.1512 0 
72.5118 24.0672 0 
69.5776 23.6331 0 
50.9211 3.19864 0 
68.385 23.4226 0 
59.9531 19.1369 0 
61.9989 20.7384 0 
55.301 14.5426 0 
57.9074 17.5354 0 
51.4447 6.70746 0 
67.1321 23.2061 0 
50.5263 1.74946 0 
73.5504 24.5672 0 
50.3289 0 0 
65.6469 22.9959 0 
55.8616 15.9339 0 
75 25 0 
51.5735 8.7671 0 
52.1341 10.1584 0 
49.9342 0.874731 0 
52.6947 11.5497 0 
60.5137 20.5282 0 
58.4679 18.9267 0 
72.1008 25.1344 0 
53.2553 12.941 0 
49.8355 3.34878 0 
56.4222 17.3252 0 
53.8158 14.3324 0 
70.4655 25.2003 0 
73.5504 25.5672 0 
49.4408 1.8996 0 
49.3421 0 0 
63.815 23.2124 0 
59.0285 20.318 0 
49.9595 6.49727 0 
54.3764 15.7237 0 
61.0743 21.9195 0 
56.9827 18.7165 0 
75 26 0 
68.8303 25.2661 0 
49.3989 5.10595 0 
67.5774 25.0496 0 
48.8487 1.02487 0 
62.3298 23.0022 0 
50.6489 9.94823 0 
66.3246 24.8331 0 
50.0883 8.55691 0 
51.2095 11.3395 0 
54.937 17.115 0 
51.7701 12.7309 0 
72.4347 26.4726 0 
59.5891 21.7093 0 
57.5433 20.1078 0 
48.3553 0 0 
52.3306 14.1222 0 
48.3553 2.04975 0 
70.9797 26.4993 0 
55.4975 18.5063 0 
73.8843 26.9053 0 
75 27 0 
52.8912 15.5135 0 
47.8618 1.02487 0 
69.3444 26.5651 0 
64.4926 25.0496 0 
58.1039 21.4991 0 
47.9186 3.80692 0 
53.4518 16.9048 0 
68.3162 26.5651 0 
60.1497 23.1006 0 
56.0581 19.8976 0 
67.0633 26.3486 0 
49.1637 9.73804 0 
49.7243 11.1294 0 
47.3684 0 0 
48.6031 8.34672 0 
50.2849 12.5207 0 
47.3684 2.04975 0 
61.4051 24.1834 0 
66.035 26.3486 0 
48.0426 6.9554 0 
54.0123 18.2961 0 
50.8454 13.912 0 
72.7686 27.8107 0 
73.8843 27.9053 0 
75 28 0 
47.482 5.56409 0 
71.3136 27.8374 0 
62.6606 25.2661 0 
58.6645 22.8904 0 
51.406 15.3033 0 
56.6187 21.2889 0 
46.875 1.02487 0 
46.9318 3.80692 0 
69.8586 27.8642 0 
54.5729 19.6874 0 
51.9666 16.6946 0 
68.8303 27.8642 0 
46.3816 0 0 
64.203 26.5651 0 
46.3816 2.04975 0 
67.802 27.8642 0 
57.1793 22.6803 0 
52.5271 18.0859 0 
48.2391 10.9192 0 
59.6464 24.5 0 
47.6785 9.52785 0 
48.7997 12.3105 0 
72.856 28.9053 0 
75 29 0 
73.9717 29 0 
47.1179 8.13653 0 
66.7737 27.8642 0 
49.3602 13.7018 0 
71.8278 28.9053 0 
45.8882 1.02487 0 
60.9019 25.5828 0 
46.5574 6.74521 0 
49.9208 15.0931 0 
63.0719 26.7325 0 
70.3727 28.9321 0 
53.0877 19.4772 0 
65.7455 27.8642 0 
69.3444 28.9321 0 
62.1465 26.5651 0 
50.4814 16.4844 0 
58.1612 24.2899 0 
45.3947 0 0 
45.7749 5.05301 0 
45.3947 2.04975 0 
68.3162 28.9321 0 
54.7594 21.7738 0 
51.4788 18.4418 0 
64.6143 28.0315 0 
67.2879 28.9321 0 
45.2247 3.29583 0 
75 30 0 
73.9717 30 0 
72.9434 30 0 
44.9013 1.02487 0 
71.9152 30 0 
46.7539 10.709 0 
47.3145 12.1003 0 
66.2596 28.9321 0 
46.1933 9.31766 0 
70.8869 30 0 
47.875 13.4916 0 
52.0394 19.8331 0 
59.1432 25.8994 0 
55.3199 23.1651 0 
45.6327 7.92634 0 
69.8586 30 0 
48.4356 14.8829 0 
63.4832 28.1989 0 
65.2313 28.9321 0 
44.4079 0 0 
60.3877 26.8818 0 
53.2742 21.5636 0 
68.8303 30 0 
44.4079 2.04975 0 
62.5578 28.0315 0 
48.9962 16.2742 0 
56.4771 24.5037 0 
44.8502 6.23413 0 
67.802 30 0 
61.6323 27.8642 0 
44.2378 3.29583 0 
49.9936 18.2316 0 
64.1002 29.0994 0 
43.9145 1.02487 0 
66.7737 30 0 
59.3793 26.9231 0 
44.0678 4.54192 0 
50.991 20.1889 0 
60.6239 27.9055 0 
65.7455 30 0 
63.0719 29.0994 0 
57.4591 26.1133 0 
45.8292 11.8901 0 
45.2687 10.4988 0 
46.3898 13.2814 0 
43.4211 0 0 
52.2258 21.9194 0 
44.7081 9.10747 0 
43.4211 2.04975 0 
46.9504 14.6727 0 
62.1465 28.9321 0 
58.4385 27.0222 0 
64.7172 30 0 
44.1475 7.71616 0 
47.511 16.0641 0 
59.6155 27.9468 0 
43.251 3.29583 0 
53.4606 23.65 0 
63.6889 30 0 
42.9276 1.02487 0 
61.1182 28.9321 0 
48.0715 17.4554 0 
43.365 6.02395 0 
54.6178 24.9885 0 
49.069 19.4127 0 
62.6606 30 0 
58.6747 28.0459 0 
50.8222 21.6733 0 
42.4342 0 0 
60.1098 28.9734 0 
55.775 26.3271 0 
42.4342 2.04975 0 
52.057 23.4039 0 
56.7544 27.236 0 
44.344 11.6799 0 
49.6295 20.804 0 
44.9046 13.0712 0 
61.6323 30 0 
43.7834 10.2886 0 
45.4652 14.4625 0 
43.2228 8.89729 0 
57.7339 28.1449 0 
46.0258 15.8539 0 
59.1213 28.9734 0 
41.9408 1.02487 0 
42.6622 7.50598 0 
46.5863 17.2452 0 
60.604 30 0 
55.9067 27.3302 0 
52.3471 24.5393 0 
53.1846 25.3346 0 
47.1469 18.6365 0 
41.7707 4.59487 0 
56.8861 28.2391 0 
41.4474 0 0 
58.1804 29.0725 0 
50.6533 23.1578 0 
41.3487 1.8996 0 
59.6155 30 0 
54.3417 26.6731 0 
55.1468 27.4186 0 
47.7075 20.0278 0 
49.4607 22.2884 0 
57.2873 29.0725 0 
56.0384 28.3333 0 
43.4194 12.861 0 
42.8588 11.4697 0 
43.98 14.2524 0 
40.8553 0.874731 0 
58.627 30 0 
50.9434 24.2932 0 
40.9539 3.34878 0 
42.2982 10.0784 0 
44.5406 15.6437 0 
48.2681 21.4191 0 
41.7376 8.68711 0 
45.1011 17.035 0 
41.068 6.0769 0 
40.4605 0 0 
56.4396 29.1666 0 
55.2785 28.4216 0 
41.177 7.2958 0 
57.7339 30 0 
45.6617 18.4263 0 
40.2632 1.74946 0 
51.2336 25.4286 0 
52.071 26.2239 0 
52.9085 27.0192 0 
46.2223 19.8176 0 
49.2716 23.6764 0 
53.7135 27.7646 0 
55.6371 29.1666 0 
56.8408 30 0 
54.5186 28.51 0 
39.8684 0.874731 0 
[...]
POINT_DATA 2394
SCALARS cohesion float 1
LOOKUP_TABLE default
20.1831
20.458
25.4842
25.4175
19.5906
22.4178
25.6916
22.4049
20.3195
30.3469
21.7541
25.1876
31.5654
21.0391
34.4369
35.2394
24.5547
24.5809
32.2608
22.71
30.8482
34.2226
29.5029
25.1076
28.4199
28.6436
20.8392
26.1473
23.5594
26.1514
26.2021
31.6383
26.3327
28.4383
20.3531
34.7707
20.9205
35.4491
26.878
33.4596
27.363
42.8839
20.9836
19.5454
50.1039
32.6929
21.076
23.0146
50.7974
27.4925
51.2336
20.6196
48.8535
31.2394
20.285
52.0905
27.3717
32.2884
49.6315
50.8843
27.5464
51.4017
22.1419
19.7236
53.1899
20.8223
52.3492
56.7077
27.6413
30.0307
58.1807
23.219
53.8334
52.5628
20.5823
20.7354
53.8483
65.5395
61.1095
19.002
58.4581
27.3117
29.863
51.079
48.5379
19.4878
44.4962
19.4666
20.2621
45.8066
50.6098
66.5388
26.6348
21.287
27.1293
41.7827
20.1319
44.2349
47.0516
42.7698
17.6753
40.302
48.4765
48.8962
21.3738
40.6343
25.8839
18.7257
39.0104
24.6669
18.8249
64.3598
36.7392
17.352
38.4113
35.9287
35.3181
24.866
43.8628
33.2418
21.1491
39.2479
17.0744
23.2347
34.6456
19.1183
60.2
33.2203
30.0513
15.5605
31.6629
32.2547
31.8911
24.4077
39.0154
39.8281
29.9532
30.7582
17.8012
17.1161
54.5362
22.7857
27.0947
15.9205
30.055
28.4117
26.1561
40.2786
18.6933
36.9117
23.734
19.7055
29.8529
26.0662
25.9626
18.3723
25.3983
27.1794
43.5422
26.3707
29.0855
16.4148
17.9724
39.8576
25.4481
23.3652
33.3061
17.2213
16.411
22.7776
26.9707
28.4955
25.4195
17.6251
35.9836
26.4499
14.9782
26.9453
23.7819
24.6422
43.0812
17.4487
25.9667
23.562
27.5011
18.6372
19.0087
31.8754
25.1539
22.5409
24.1059
22.7341
18.5302
19.57
14.1645
34.2587
15.8962
21.474
43.8963
25.0051
19.4138
26.8023
25.173
23.0075
24.2091
25.7454
20.1417
21.7569
18.574
19.9793
20.0713
32.0815
27.7691
14.7918
32.5911
24.4565
26.9167
22.456
40.9206
25.0079
25.0444
16.0704
20.9322
19.214
24.3015
28.3266
27.1851
27.611
22.6099
22.6275
27.4945
20.2407
21.9934
30.329
17.7137
31.1681
19.6552
32.0085
31.5762
21.5882
39.6511
26.778
25.9197
25.8881
26.6042
26.5702
32.0122
16.9112
20.547
34.5912
18.6583
16.0281
26.0278
31.4485
29.5811
24.7052
32.2704
24.7562
31.1893
32.1368
25.3278
24.4684
35.5331
18.8521
30.6983
40.1074
38.3965
18.6494
19.4647
38.8993
27.9646
32.0125
15.7052
32.647
25.0968
23.2563
30.5586
37.8233
18.0211
31.6627
26.1489
16.7172
37.5809
20.1775
23.8528
31.3841
24.8673
32.1381
16.9788
18.4124
34.2788
29.8234
40.1095
36.6453
36.8614
32.8329
21.3526
30.2927
25.7242
15.8618
18.7301
31.643
38.0976
19.3735
40.9758
25.6227
38.8138
22.9837
31.1683
23.7987
41.5054
18.0215
27.4611
18.8498
40.5777
21.1577
22.9074
36.4457
39.501
25.3665
39.0744
36.9261
25.5187
21.5511
19.7282
18.8639
27.9818
23.5434
22.8972
17.1001
17.135
17.6057
38.76
34.7779
20.626
22.0363
33.6883
26.74
15.9481
24.3931
15.4092
28.9212
24.5029
31.7098
38.1031
33.687
36.048
42.7241
25.5111
21.3187
16.1531
36.9891
32.2059
18.1927
23.4251
16.2201
15.821
26.4381
17.1047
17.9182
23.7202
22.9284
15.8786
28.1259
39.4012
16.5882
23.4649
15.8385
28.9564
30.5409
16.4129
35.5263
44.8811
17.1033
33.0093
21.9167
17.1786
33.4006
16.1255
21.674
28.0571
22.4647
17.2844
17.7823
18.4376
15.2122
16.7374
23.1677
29.3711
25.4043
40.0098
22.2088
16.5987
16.1244
27.1679
22.7044
15.4236
17.0669
15.1415
15.8571
15.3121
29.7661
29.0485
42.1026
31.778
33.3697
22.8703
24.713
27.2206
26.3414
28.6352
14.93
19.9943
23.2265
21.9161
16.8896
19.5516
26.1049
16.9744
21.4104
22.7644
15.3329
20.1852
15.6702
23.1789
32.2556
15.6313
14.7018
15.6607
18.9323
38.6834
26.4468
14.035
17.9055
18.4749
28.6915
28.8181
28.5974
21.4101
27.8541
39.838
23.5727
17.0041
30.9951
27.0181
16.8157
25.6161
15.3799
31.3255
25.527
25.292
27.0319
13.5226
16.607
15.9207
18.3771
40.8146
24.0456
15.0281
14.6338
19.9322
32.8672
16.5598
22.701
15.4904
19.8105
28.8262
17.4545
20.931
21.96
19.5893
15.6727
26.3686
15.461
21.1112
17.5198
16.9232
25.2223
36.8253
15.0562
14.9872
36.3481
29.1301
15.8303
25.9363
17.0238
20.6013
20.0125
23.1718
19.432
16.3755
19.1489
28.3347
19.2573
20.411
17.9968
27.7222
16.8746
27.5454
19.644
19.7492
17.5887
35.9671
15.4457
19.4096
16.166
15.6011
25.3342
22.9317
28.3937
35.6256
13.6241
20.6386
34.8903
25.7419
27.1281
17.6781
19.4295
20.5157
20.3282
21.1722
26.031
20.7713
22.0214
29.7107
19.4973
20.807
16.953
18.8381
14.3884
22.0351
24.0489
16.1249
21.6024
18.815
23.397
23.1818
29.6924
23.2125
19.3729
14.4116
31.275
25.1693
19.8713
21.9026
27.6047
19.9644
32.4027
21.5651
37.3528
25.3252
23.9894
17.5056
14.9446
23.8111
19.2192
20.0988
22.5119
22.9096
15.9466
17.2698
16.4739
20.9023
19.2569
24.7022
20.8321
24.1242
22.3107
18.4703
19.5819
20.7048
25.8665
36.6574
15.2769
25.6342
35.097
19.1709
25.3054
22.8627
24.3682
14.2058
24.0675
20.1924
29.8728
22.5211
15.6204
23.4143
25.9628
17.6312
17.8158
18.9377
21.2192
15.9605
17.909
23.8357
21.9779
20.1587
19.8302
20.1962
17.1164
21.6442
26.6919
22.0459
26.2981
34.4457
23.2538
19.9894
14.9165
14.9125
20.0154
25.3649
18.2938
30.9572
21.601
22.956
36.0322
22.3116
19.7616
17.6238
19.2631
18.8992
27.903
28.5612
16.2731
18.9493
21.7378
18.8379
20.2516
22.522
22.075
15.7112
20.2641
20.4795
18.0368
19.7632
26.0486
27.5646
21.0209
15.4644
23.7359
22.0567
16.7457
30.5355
17.8243
16.9279
20.7158
17.6689
19.7517
20.9924
21.766
18.0621
24.8956
38.9591
21.0636
21.3418
22.1553
36.561
20.6159
33.1482
21.5354
18.0965
25.6425
15.0664
21.6471
21.2109
18.4985
19.9576
20.1517
20.5995
16.9142
20.5055
18.9898
19.5594
22.575
21.2784
22.8762
26.9056
16.9991
30.7707
22.7223
21.2416
20.3638
21.2152
19.5505
17.7417
20.6979
20.3976
17.8229
19.6137
20.4176
21.5708
18.8591
20.9436
19.5335
43.9802
23.9193
24.0606
20.2513
26.1817
21.555
33.4443
15.5419
16.5945
20.826
35.557
16.3161
20.9533
25.0238
20.399
23.0883
27.1649
21.6178
18.6364
21.0162
18.7773
20.8647
18.5734
20.9996
20.1879
20.3574
21.4637
18.3141
20.8529
22.2413
21.4595
28.3636
22.4289
22.6356
21.3869
20.3737
19.1701
18.8092
21.4075
21.2771
20.7826
20.6486
21.1202
20.3979
20.578
21.414
26.437
15.0269
20.6643
21.5764
14.2166
20.4801
21.6374
21.5422
21.1712
50.8554
25.1481
20.7952
19.9264
19.9737
22.0143
35.8002
19.0968
21.536
22.5665
20.4676
21.761
31.3734
33.3199
17.9626
20.8193
24.5818
19.2969
21.4816
20.48
21.8291
15.6535
21.7056
18.3705
20.7653
20.6064
22.2969
21.425
20.5095
19.6599
22.1828
20.7828
26.672
20.2687
26.3822
21.3651
20.5544
21.0818
21.8356
20.7433
22.1038
21.3064
21.5607
20.5709
20.0363
22.1278
22.8413
21.8136
20.7494
14.3028
21.8335
14.4338
20.6092
21.2433
21.876
19.845
21.8004
20.7189
22.016
21.1709
20.6226
21.9916
20.7212
20.2213
21.5545
20.649
21.1031
26.1694
22.1051
23.2547
21.4719
20.6986
20.8788
21.8317
21.0617
20.6544
48.8488
20.6971
21.3967
18.0607
20.8474
24.9672
22.1479
20.6695
21.4228
21.003
20.3306
37.0705
21.3554
20.6724
31.7263
21.7741
22.0701
22.0265
20.9473
20.6784
20.6741
22.2947
22.6038
23.8862
20.6865
20.8913
21.2584
21.5758
21.2985
20.6569
21.7376
20.2516
20.6876
26.4823
20.8621
21.2703
34.9906
20.6582
22.0462
14.9414
24.2529
21.7161
20.6862
20.8324
27.9623
21.2564
20.6504
22.2821
21.4011
20.6826
20.8219
14.9027
21.3879
20.6523
13.6464
20.6724
20.8036
21.7986
20.0765
20.6474
20.8074
20.9389
20.6673
22.6381
21.0688
20.7906
21.7919
20.6443
22.3139
20.6549
21.0142
20.6947
21.139
21.064
21.925
20.6474
20.7055
21.0984
21.4869
21.0684
20.6368
23.2741
23.8688
21.0782
20.6965
20.864
22.3643
25.5016
21.2126
20.6237
17.1245
22.1077
20.8506
22.1414
20.6983
21.3621
21.7114
21.3764
20.626
21.3506
20.9086
20.7868
20.88
22.0808
25.5467
20.6154
21.4103
22.4296
21.3054
30.0139
22.3858
20.8701
23.3225
20.7894
22.1891
22.7468
20.7283
24.6012
19.8529
21.4764
20.6087
45.0334
41.4945
21.255
22.8579
20.7522
21.2107
20.6163
24.7942
21.4417
22.0548
15.4722
23.196
22.438
20.7546
21.2258
23.7206
22.2542
20.6323
23.4291
21.6492
16.0674
21.0153
22.7544
26.9374
20.8757
20.645
22.3469
22.1902
26.8195
24.9312
21.0542
22.3619
22.8451
21.4803
20.9399
23.393
15.1676
20.8733
21.9743
25.7238
20.675
23.8543
22.3763
21.1923
21.3402
24.3743
22.2106
20.807
22.0714
20.7287
29.1139
35.2359
23.8453
15.8962
24.6888
21.275
21.6161
22.4665
22.6524
27.5816
20.8357
20.8075
24.0045
24.1884
21.4951
21.9497
26.155
22.8283
21.0091
22.7662
21.3138
20.8871
24.6488
27.004
32.0482
21.6633
27.5343
21.8222
23.2118
16.6264
27.3258
21.036
30.6467
21.0291
22.5714
22.9075
35.4012
23.9704
22.0228
23.7784
28.4755
21.7197
18.8497
27.1337
21.0874
23.9744
21.2023
26.8702
34.5354
22.3299
25.0546
24.4031
21.9865
32.9863
21.2095
27.5577
21.9214
33.3424
21.4599
22.9144
15.7823
24.6008
23.8032
22.4807
31.0296
25.1987
23.1929
16.4842
23.3793
22.3445
25.0306
21.4226
28.4836
21.7692
26.2341
23.4625
36.0635
26.0247
25.7822
28.187
23.6818
35.9511
24.5176
22.4083
21.6396
22.2755
15.1329
24.3811
27.1777
34.0312
15.7479
25.3849
22.4812
31.7661
22.4974
21.9593
23.9397
22.8538
35.5195
25.2523
27.3259
25.7861
28.3943
24.2162
29.8175
37.1468
33.0111
31.2236
16.4192
22.4317
22.6572
23.7291
26.6887
37.2409
29.9724
16.9238
23.5768
34.5145
22.9992
24.8052
22.8642
25.3236
28.0506
29.4592
31.5286
38.7487
23.4529
25.3822
24.6598
34.7156
23.1105
23.4441
25.9863
14.5628
25.6491
16.6166
13.1801
38.2551
36.3514
26.3625
23.9082
30.0132
18.5363
33.5607
23.2266
38.9345
23.311
24.8293
38.3057
28.1521
31.9659
35.833
16.8969
25.0391
23.6426
35.2885
26.1373
23.7514
26.0679
39.6805
25.1957
35.7641
32.962
38.5449
34.6765
38.1449
24.4488
30.4987
27.1544
17.2837
26.7927
24.4104
25.7146
41.0075
14.0241
14.0268
25.7174
32.227
40.4443
37.1515
28.6367
26.5827
23.7017
33.1195
23.939
28.895
23.3545
24.4471
25.4835
38.0102
38.0461
36.8821
16.7172
26.5086
25.7624
25.7996
42.5828
40.3506
41.946
23.3947
30.695
36.258
31.8626
28.7991
27.7609
25.7909
21.2426
23.8753
43.9832
26.2235
41.551
29.2221
42.9306
14.6983
38.1618
39.7462
14.0764
38.3329
22.8069
25.3386
35.0244
37.4466
30.2532
23.7154
25.6593
44.033
40.8126
45.2126
36.3469
27.2142
43.2541
16.8846
27.387
24.0769
28.2049
28.5768
39.1303
34.2784
22.5347
38.6479
43.3287
27.2068
21.7701
39.7496
46.2553
26.0366
46.7218
14.2221
14.919
41.0824
42.8368
39.1707
25.7547
29.7086
23.5151
41.6694
39.0605
25.3451
24.306
45.4408
29.675
30.9271
26.3393
24.5058
48.2335
27.5077
19.3338
41.6753
17.0806
39.6191
46.7008
24.3967
40.0348
40.3103
22.77
43.3652
43.5279
33.2376
23.6857
34.2776
48.1966
14.8342
14.7784
28.6426
41.1557
48.8443
25.731
36.6115
39.932
37.2258
26.0733
40.3149
47.4653
30.6899
30.3148
19.8856
27.4961
23.3018
44.6618
17.2235
24.0092
27.5315
24.3304
27.1432
25.2351
31.2043
32.523
48.5301
19.3493
41.6839
25.9494
23.9226
34.8638
37.9339
39.671
48.8992
26.795
14.4167
29.3537
40.9807
15.9014
46.3236
29.5763
41.7947
27.3619
26.8897
44.6321
25.7748
27.4073
39.6058
26.3954
48.5781
17.3274
36.3567
36.6213
39.4282
48.2635
23.1557
41.6059
28.4082
43.9667
22.0792
40.3971
22.2749
20.7282
27.3253
25.619
26.8189
25.8052
39.9883
25.9945
15.0308
35.6611
15.858
27.1453
23.6286
43.1027
26.5635
38.5825
40.4172
47.1999
25.3434
36.9094
27.4457
38.1559
40.4798
34.9483
26.049
25.0286
17.4075
30.1259
32.2017
28.8661
21.8689
34.5396
27.0778
25.5241
39.2612
37.6753
38.4166
38.659
26.9744
37.9132
39.8349
46.8551
26.626
29.4497
14.6186
16.9596
21.7442
21.1706
19.426
22.6795
40.2235
37.1795
34.8894
25.619
30.8976
26.6509
31.1928
18.4226
25.214
36.6995
28.4449
27.1255
37.3659
38.7586
39.9466
17.5878
27.3663
26.7981
38.9843
26.4846
27.5386
31.9401
46.6466
37.0527
32.2027
28.203
36.8131
27.5492
36.0209
33.8734
39.5136
21.7718
36.052
32.1179
15.217
25.5974
16.764
34.7437
26.8314
29.4443
31.3129
34.6013
35.8936
38.5636
26.9991
18.1458
31.2801
23.7531
28.8399
22.2036
36.9903
22.8461
25.263
26.1462
37.6242
33.2819
29.7462
17.8676
27.6346
23.4935
32.9331
32.8278
33.0362
44.4677
33.2182
39.2766
28.2668
27.2731
27.2903
28.7153
27.2176
34.4734
34.3157
27.3576
31.4372
15.0386
35.6794
18.4014
27.1772
32.2637
31.6452
32.7651
30.1493
36.511
27.2744
35.6686
27.8197
39.2902
33.2508
20.6063
27.2946
31.4554
25.9601
31.7241
38.9366
29.0158
28.4245
27.3197
29.9152
18.3266
25.0811
20.2283
28.4029
28.2085
28.0374
21.6838
38.3711
33.6332
30.0332
27.4896
32.9531
23.4605
41.9522
25.7743
27.2252
27.4052
32.9974
29.0752
25.0907
27.8562
26.8488
31.801
27.3374
35.1662
37.9105
33.6158
27.8419
15.859
44.3821
18.8484
32.2644
35.4467
27.5123
27.6142
30.2325
39.6498
33.1221
27.5815
26.0074
30.1908
31.0036
28.1155
26.023
32.3348
27.6782
27.7749
41.8415
27.73
19.2449
34.6666
30.2742
28.5767
28.5143
26.0898
36.1091
21.4605
27.9069
26.4058
34.5863
29.0766
31.5169
34.146
26.3422
28.7952
27.7836
41.1363
33.3044
40.4134
28.3638
19.9364
33.8444
25.7951
32.1117
29.9286
15.8782
24.3072
23.3085
28.1338
29.1733
25.7005
20.6198
39.8121
34.9194
37.5067
25.1506
27.886
27.0429
31.0815
28.2875
25.7912
31.863
43.6653
29.74
33.8215
26.0519
31.9255
28.0149
28.3287
27.8565
35.2167
31.4748
27.9912
20.3378
28.3834
25.9333
29.5603
31.5878
35.5173
41.7191
31.6779
35.6724
30.9426
27.9348
33.9036
32.2694
28.2249
26.273
28.4671
31.9349
31.3032
33.9235
35.5925
29.7395
31.2591
21.2399
35.9115
26.1968
16.9474
33.7405
27.8003
21.8012
25.8254
35.2143
32.9419
42.0697
26.296
25.3657
28.6156
28.2122
37.5957
34.6216
29.8596
31.4823
33.4018
27.9159
36.166
35.0873
26.7151
25.8668
30.7103
34.228
36.3336
26.4828
33.4357
24.985
29.0386
19.6125
21.8933
36.7249
31.8237
33.8195
32.8584
35.1958
36.2172
36.732
36.5317
35.6594
26.414
29.2931
29.1704
28.5681
25.8581
31.1318
29.2498
34.2102
23.4965
28.7009
35.6042
38.8469
26.4921
36.7047
36.176
31.0708
17.1346
28.0459
38.162
33.4001
37.8595
26.5724
32.204
36.0425
37.3078
33.7237
30.5495
37.1192
25.6454
28.4694
28.1363
32.6157
22.8249
28.7691
26.8594
35.4672
36.1354
33.0053
37.4739
29.914
37.4921
23.7341
27.7947
29.5722
26.0909
26.8973
29.4859
25.0028
35.2015
24.9225
39.5358
23.6823
30.7457
31.6606
33.1711
30.0314
23.9911
31.9681
27.8986
42.1009
24.0662
27.1004
34.4249
36.5235
36.9024
18.6031
27.5177
28.547
38.0972
30.1098
27.9768
27.1062
31.2453
37.2119
35.2135
32.7918
32.4297
23.8651
37.9338
32.2341
28.0504
27.2424
31.0207
45.7245
35.5876
28.7486
33.6758
36.3232
30.2744
38.2592
31.3179
33.8966
27.1908
26.6076
28.8007
34.4756
25.1773
31.587
27.2505
30.2125
34.5239
36.9694
28.1457
27.0131
26.0101
39.8326
18.9734
25.4015
22.8384
27.2439
22.4665
37.7357
28.3196
31.9505
30.2047
32.6334
28.1848
43.4341
27.3856
30.2119
35.0489
30.7908
28.191
31.9423
33.4778
27.3342
26.6074
28.469
30.5227
30.9358
32.7231
37.1757
29.9523
28.1796
33.0797
27.4095
38.3411
25.5838
29.6411
40.4477
33.5664
28.01
27.3808
38.1865
30.0189
36.8759
27.8299
34.3797
32.1922
28.0035
27.4249
35.2131
20.1144
30.3977
30.3842
28.1955
26.13
38.1572
27.3627
31.1283
26.2762
36.6785
28.1752
32.5554
25.4299
31.8222
25.4528
30.0158
37.4887
27.3845
38.8388
28.5879
30.0676
26.7757
36.2897
24.8241
27.322
37.4751
27.26
37.3145
31.3049
28.5838
52.5681
27.3141
37.0082
32.4979
27.2511
24.2313
47.1704
30.8696
36.0181
27.8063
33.9074
28.2927
37.4913
36.2307
27.1152
19.8712
31.9856
34.3176
37.4113
25.4777
31.0126
28.2395
33.2504
27.1617
26.5534
26.6031
28.8482
28.0596
37.1877
44.5502
28.0086
26.983
33.8746
23.6018
32.2762
35.7192
25.3313
26.5806
39.6503
23.1647
28.7856
34.8529
37.0742
44.7252
26.9815
21.9207
31.3722
27.8303
40.8627
37.2423
28.2769
20.4126
27.97
32.9035
35.65
31.3433
26.8435
28.4211
31.9057
35.2897
36.8004
38.0222
28.2248
37.1216
34.9706
26.8982
26.253
28.7047
32.4706
28.4168
28.7892
28.4634
37.3972
27.3906
24.6714
26.7586
27.2002
35.4855
37.1956
28.496
21.8249
41.9313
33.0194
24.8148
26.8133
23.9547
36.2748
33.4477
23.8857
32.6748
19.9222
34.3029
43.9356
31.2151
31.9232
31.057
26.6744
26.4419
43.9699
35.6457
28.6899
24.4254
37.4862
33.6127
27.4522
39.4839
33.1517
39.6923
26.8378
27.5892
26.9038
35.4851
31.9115
28.6432
25.8728
35.6262
43.9803
37.9938
23.697
27.7501
26.8566
35.1469
21.776
20.4414
27.3371
28.9677
28.8978
24.508
36.4868
27.2759
22.7131
33.4583
24.9369
38.1932
26.9911
25.5161
37.5347
37.3556
27.4524
43.496
38.0631
24.34
30.4424
35.834
37.2116
34.8687
26.8673
32.1625
38.0471
45.1753
41.55
26.8214
22.6012
38.7122
30.8132
32.8686
19.875
30.0933
27.0732
23.5604
32.7859
26.8719
39.1629
31.5376
22.5123
31.3394
28.5784
27.1923
26.2191
31.3644
40.9748
24.0457
32.4413
40.4616
38.3204
22.514
44.7501
27.7548
28.9837
37.5815
24.9968
31.6588
29.9642
38.5115
39.9607
36.0515
27.601
20.2092
42.8864
47.156
41.6373
35.5034
26.096
35.9472
30.5682
39.2708
27.9245
23.7279
42.3451
28.3135
26.712
26.1571
35.7753
36.4296
37.1293
38.251
30.9259
28.421
27.5607
24.0021
42.7977
29.758
22.9077
26.8884
28.4668
44.0484
38.2852
19.5123
36.4687
35.3043
41.8762
31.712
42.4297
28.5654
26.7144
34.9553
44.5226
24.7331
40.327
32.4681
44.1935
27.8818
32.1164
45.7097
28.2807
28.8987
43.2474
22.4821
39.3319
29.0861
42.5288
25.3027
31.1152
25.4085
33.4762
29.6559
20.139
28.9748
43.9937
19.5144
40.5982
28.3199
38.5482
42.4945
43.8083
25.1132
29.1884
26.7125
33.852
29.2005
45.3152
22.4599
39.6964
28.0996
44.1915
34.706
29.578
43.006
29.2458
55.012
34.0085
26.3246
34.2099
24.8442
29.1938
31.7276
30.9629
26.4673
18.8021
34.2028
35.7129
43.9763
30.5995
43.286
29.3675
40.8937
41.6503
24.9037
34.7999
29.0795
25.3285
30.265
35.1349
25.4601
45.6319
38.7015
29.2839
21.9813
37.6201
18.9916
44.9143
38.5175
46.8384
28.6913
25.9515
29.2444
28.5394
34.5964
22.7961
45.7216
24.8763
37.0392
25.7227
27.7061
46.5427
35.4493
30.1649
28.9817
31.3885
27.2129
35.1386
34.5469
23.4899
30.1093
24.9411
18.4866
44.8829
40.2987
35.8348
28.665
23.5932
29.2
46.8381
27.5396
34.3483
27.3924
25.8513
35.6575
28.3843
26.257
28.1734
40.4021
17.1761
35.5544
61.5458
34.6145
25.046
27.5387
37.9935
25.443
39.9257
24.2846
34.9191
19.5251
27.1421
44.5315
27.3707
32.3083
34.8265
31.1658
36.5387
24.8314
27.0856
30.9976
28.7013
30.7852
39.5597
25.1927
26.9608
38.8994
34.012
28.3912
24.8667
42.4528
22.5876
36.7107
27.942
32.6275
23.8266
26.3287
26.3604
31.256
19.6009
26.4098
23.2169
37.6139
26.9529
38.8738
38.8286
28.5582
17.0161
34.6061
36.6113
33.6428
27.5728
27.7658
40.9163
40.4206
22.4311
28.0543
62.1981
31.4556
25.8904
26.188
36.0894
25.7872
39.7534
36.0652
47.6112
26.4724
32.8054
33.5632
33.8159
38.4327
24.2568
29.8394
32.6132
28.3334
22.5019
25.4972
25.7032
26.8983
33.8865
23.0671
50.8298
31.9255
29.5031
38.4603
38.2718
27.0738
28.8425
32.857
36.577
57.4467
19.8143
25.1097
21.7897
24.706
30.5988
39.1778
29.2693
37.6858
32.62
28.9663
28.233
24.0761
35.6433
42.008
34.065
20.081
55.6582
34.2024
34.0513
27.9561
34.7465
26.2979
47.6518
32.2268
37.114
23.4424
28.5151
30.2169
32.8447
23.9564
20.4008
27.2904
33.8241
36.1456
23.6546
22.723
25.8513
32.1819
34.5683
32.9417
22.0087
32.253
31.069
32.157
32.8012
31.8356
22.5497
25.0414
39.2236
31.4614
31.593
35.7631
31.1816
26.988
31.6383
31.6971
24.9319
21.8404
32.2547
24.8224
37.0248
21.0728
19.6063
30.488
35.9329
31.7035
30.8688
24.4017
21.4965
29.9906
33.6339
28.3809
31.7297
30.4113
38.3471
24.3144
20.8731
25.4536
31.5564
22.4082
27.5789
30.3427
23.7084
18.1613
30.7799
29.0683
20.7006
26.8166
19.1247
31.7396
24.0339
27.8945
20.5314
22.5266
28.6632
27.4813
20.2989
27.2344
18.1061
25.732
20.7096
27.6319
22.342
19.202
22.4176
27.8325
22.5535
20.4553
25.4682
19.0215
18.334
22.668
20.5231
28.2491
19.1264
20.1335
24.7437
23.8216
29.1614
20.4488
23.5071
20.8548
SCALARS friction float 1
LOOKUP_TABLE default
13.693
13.5847
13.4203
13.8242
13.9463
14.9784
14.0361
14.9578
13.8114
9.634
15.5677
14.4209
9.06156
13.1294
7.58848
7.56682
13.277
15.5672
8.55237
12.3342
9.13879
7.80672
9.74767
15.4137
10.2294
9.75988
13.0164
10.7704
14.0909
10.5941
10.2368
8.8958
14.0681
11.2602
13.3318
10.9038
16.8333
10.6802
11.171
7.92017
13.3774
9.87854
11.7264
13.178
8.96112
8.34565
16.3354
10.8171
8.66157
12.8681
9.02638
12.2812
9.31314
8.47949
16.1662
7.9534
9.62924
9.8928
7.5859
8.63866
12.3068
8.77067
12.0947
12.0155
8.51175
15.0344
7.49303
8.07951
11.6957
7.92693
8.64169
10.6829
6.94597
6.40086
11.2226
12.9059
10.3975
7.01753
5.46992
15.3346
9.59401
11.2886
7.64521
11.5688
7.87324
11.0881
12.2142
14.3541
12.5182
11.3834
6.08561
5.39651
11.0655
13.3676
7.96314
11.324
10.5741
8.8377
9.78142
10.5962
14.975
10.3966
6.47408
9.03308
11.1175
9.42544
11.0074
14.1432
8.99899
8.48333
10.7558
6.16886
10.3654
14.9444
8.64714
8.80699
8.72552
11.1609
7.56201
8.23168
10.9649
10.4189
13.7095
8.57174
7.52408