# vtk DataFile Version 3.0
File generated from DClib
ASCII

DATASET UNSTRUCTURED_GRID
POINTS 2394 float
75 0 0 
74.0132 0 0 
75 1 0 
74.0132 1 0 
73.0263 0 0 
75 2 0 
72.9355 1.08748 0 
73.9223 2.08748 0 
72.0395 0 0 
75 3 0 
72.8446 2.17496 0 
71.9486 1.08748 0 
73.9223 3.08748 0 
71.0526 0 0 
75 4 0 
72.8838 3.58748 0 
71.5238 2.50694 0 
70.6278 1.41947 0 
73.9615 4.5 0 
70.0658 0 0 
75 5 0 
71.563 3.91947 0 
72.9229 5 0 
69.641 1.41947 0 
70.203 2.83893 0 
73.9615 5.5 0 
69.0789 0 0 
75 6 0 
69.1476 2.44434 0 
72.9229 6 0 
71.6239 5.5 0 
70.2639 4.41947 0 
68.5855 1.02487 0 
73.9615 6.5 0 
68.0921 0 0 
75 7 0 
68.0921 2.04975 0 
72.9229 7 0 
71.6239 6.5 0 
68.6542 3.74338 0 
67.5987 1.02487 0 
73.9615 7.5 0 
70.3248 6 0 
67.1053 0 0 
75 8 0 
67.5987 3.34878 0 
67.1053 2.04975 0 
68.7151 5.32391 0 
73.0785 8.1 0 
66.6118 1.02487 0 
74.1171 8.6 0 
66.1184 0 0 
75 9 0 
66.6118 3.34878 0 
66.1184 2.04975 0 
71.6239 8.5 0 
67.1053 4.64782 0 
69.1755 7.15213 0 
70.3248 8 0 
73.2341 9.2 0 
65.625 1.02487 0 
74.1171 9.6 0 
67.5657 6.47604 0 
65.1316 0 0 
75 10 0 
65.1316 2.04975 0 
71.7795 9.6 0 
73.0785 10.1 0 
64.6382 1.02487 0 
65.1137 3.65591 0 
73.9615 10.5 0 
65.6071 4.95495 0 
68.0262 8.30425 0 
69.1755 9.15213 0 
64.1447 0 0 
66.0569 6.38442 0 
75 11 0 
71.6239 10.5 0 
70.3248 10 0 
64.1447 2.04975 0 
72.9229 11 0 
63.6513 1.02487 0 
64.1268 3.65591 0 
73.9615 11.5 0 
66.5173 8.21264 0 
63.1579 0 0 
75 12 0 
63.1579 2.04975 0 
64.1089 5.26208 0 
73.0785 12.1 0 
67.2259 9.58662 0 
68.3752 10.4345 0 
62.6645 1.02487 0 
64.5587 6.69155 0 
63.14 3.65591 0 
74.1171 12.6 0 
62.1711 0 0 
65.0085 8.12102 0 
70.3248 12 0 
71.6239 12.5 0 
62.1711 2.04975 0 
75 13 0 
65.717 9.495 0 
68.9358 11.8258 0 
62.6466 4.95495 0 
73.2341 13.2 0 
61.6776 1.02487 0 
63.0969 6.3615 0 
74.1171 13.6 0 
61.6776 3.34878 0 
61.1842 0 0 
66.4255 10.869 0 
63.5467 7.79097 0 
61.1842 2.04975 0 
71.7795 13.6 0 
75 14 0 
73.0785 14.1 0 
60.6908 1.02487 0 
63.9359 9.23812 0 
73.9615 14.5 0 
61.1842 4.64782 0 
66.9861 12.2603 0 
61.6346 6.05437 0 
60.6908 3.34878 0 
70.3248 14 0 
60.1974 0 0 
64.6444 10.6121 0 
71.6239 14.5 0 
62.085 7.46091 0 
60.1974 2.04975 0 
75 15 0 
68.9358 13.8258 0 
72.9229 15 0 
59.7039 1.02487 0 
65.5009 12.0501 0 
62.4741 8.90807 0 
73.9615 15.5 0 
67.5467 13.6516 0 
59.2105 0 0 
60.2109 5.66149 0 
62.8633 10.3552 0 
60.6613 7.06804 0 
75 16 0 
59.1118 1.8996 0 
66.0615 13.4414 0 
69.4963 15.2171 0 
73.0785 16.1 0 
63.7198 11.7932 0 
59.2712 4.40082 0 
61.0276 8.51671 0 
58.6184 0.874731 0 
58.7778 3.10178 0 
68.1073 15.0429 0 
74.1171 16.6 0 
70.3248 16 0 
58.2237 0 0 
71.6239 16.5 0 
64.5763 13.2312 0 
61.4167 9.96386 0 
75 17 0 
66.6221 14.8327 0 
58.0263 1.74946 0 
59.2376 6.67516 0 
62.2346 11.583 0 
73.2341 17.2 0 
57.6316 0.874731 0 
59.6039 8.12383 0 
57.6923 2.95164 0 
58.2979 5.41449 0 
68.6678 16.4342 0 
74.1171 17.6 0 
65.1369 14.6226 0 
63.0911 13.0211 0 
57.2368 0 0 
59.9702 9.5725 0 
71.7795 17.6 0 
57.1382 1.8996 0 
75 18 0 
67.1826 16.2241 0 
69.4963 17.2171 0 
60.8215 11.2716 0 
57.3582 4.15382 0 
73.0785 18.1 0 
56.7434 1.02487 0 
63.6517 14.4124 0 
56.8041 3.10178 0 
57.8154 6.75019 0 
58.376 8.14151 0 
65.6974 16.0139 0 
73.9615 18.5 0 
61.6059 12.8109 0 
70.3248 18 0 
56.25 0 0 
71.6239 18.5 0 
56.25 2.04975 0 
58.7423 9.59018 0 
56.8757 5.48952 0 
75 19 0 
59.3749 10.8802 0 
67.7432 17.6154 0 
72.9229 19 0 
64.2122 15.8037 0 
62.1665 14.2022 0 
55.7566 1.02487 0 
60.1928 12.4994 0 
66.258 17.4052 0 
68.5717 18.3983 0 
73.9615 19.5 0 
55.7563 3.4912 0 
55.2632 0 0 
56.3932 6.82522 0 
56.9538 8.21654 0 
62.727 15.5935 0 
55.2022 2.43916 0 
57.5143 9.60785 0 
75 20 0 
64.7728 17.195 0 
60.6813 13.992 0 
58.147 10.8979 0 
73.0785 20.1 0 
58.7796 12.188 0 
55.3905 5.27933 0 
54.7088 1.41428 0 
66.8186 18.7965 0 
70.3248 20 0 
74.1171 20.6 0 
63.2876 16.9848 0 
61.2418 15.3833 0 
69.1323 19.7896 0 
54.2763 0 0 
71.6239 20.5 0 
59.2681 13.6806 0 
65.3334 18.5863 0 
75 21 0 
54.1544 2.82857 0 
55.4686 8.00635 0 
54.908 6.61503 0 
56.0291 9.39767 0 
73.2341 21.2 0 
53.7219 1.41428 0 
56.5897 10.789 0 
61.8024 16.7746 0 
57.2224 12.079 0 
63.8482 18.3761 0 
59.7566 15.1731 0 
67.3791 20.1878 0 
74.1171 21.6 0 
53.7886 4.61671 0 
53.2895 0 0 
71.7795 21.6 0 
57.7829 13.4704 0 
53.2285 2.43916 0 
65.8939 19.9776 0 
75 22 0 
62.363 18.1659 0 
60.3172 16.5644 0 
73.0785 22.1 0 
52.7961 1.02487 0 
53.9834 7.79616 0 
54.5439 9.18748 0 
64.4087 19.7674 0 
58.2714 14.9629 0 
70.3248 22 0 
53.4228 6.40485 0 
73.9615 22.5 0 
55.1045 10.5788 0 
69.1323 21.7896 0 
52.7351 3.7382 0 
52.3026 0 0 
67.9397 21.5791 0 
55.6651 11.9701 0 
71.6239 22.5 0 
52.3026 2.04975 0 
60.8778 17.9557 0 
62.9235 19.5573 0 
58.832 16.3542 0 
75 23 0 
66.4545 21.3689 0 
56.2257 13.3614 0 
72.9229 23 0 
51.8092 1.02487 0 
52.3693 5.52633 0 
64.9693 21.1588 0 
51.8092 3.34878 0 
56.7862 14.7527 0 
73.9615 23.5 0 
61.4383 19.3471 0 
59.3926 17.7456 0 
51.4145 1.8996 0 
51.3158 0 0 
53.0587 8.97729 0 
52.4982 7.58597 0 
53.6193 10.3686 0 
71.2128 23.5672 0 
63.4841 20.9486 0 
54.1799 11.7599 0 
57.3468 16.1441 0 
75 24 0 
50.9211 0.874731 0 
51.3158 4.64782 0 
54.7405 13.1512 0 
72.5118 24.0672 0 
69.5776 23.6331 0 
50.9211 3.19864 0 
68.385 23.4226 0 
59.9531 19.1369 0 
61.9989 20.7384 0 
55.301 14.5426 0 
57.9074 17.5354 0 
51.4447 6.70746 0 
67.1321 23.2061 0 
50.5263 1.74946 0 
73.5504 24.5672 0 
50.3289 0 0 
65.6469 22.9959 0 
55.8616 15.9339 0 
75 25 0 
51.5735 8.7671 0 
52.1341 10.1584 0 
49.9342 0.874731 0 
52.6947 11.5497 0 
60.5137 20.5282 0 
58.4679 18.9267 0 
72.1008 25.1344 0 
53.2553 12.941 0 
49.8355 3.34878 0 
56.4222 17.3252 0 
53.8158 14.3324 0 
70.4655 25.2003 0 
73.5504 25.5672 0 
49.4408 1.8996 0 
49.3421 0 0 
63.815 23.2124 0 
59.0285 20.318 0 
49.9595 6.49727 0 
54.3764 15.7237 0 
61.0743 21.9195 0 
56.9827 18.7165 0 
75 26 0 
68.8303 25.2661 0 
49.3989 5.10595 0 
67.5774 25.0496 0 
48.8487 1.02487 0 
62.3298 23.0022 0 
50.6489 9.94823 0 
66.3246 24.8331 0 
50.0883 8.55691 0 
51.2095 11.3395 0 
54.937 17.115 0 
51.7701 12.7309 0 
72.4347 26.4726 0 
59.5891 21.7093 0 
57.5433 20.1078 0 
48.3553 0 0 
52.3306 14.1222 0 
48.3553 2.04975 0 
70.9797 26.4993 0 
55.4975 18.5063 0 
73.8843 26.9053 0 
75 27 0 
52.8912 15.5135 0 
47.8618 1.02487 0 
69.3444 26.5651 0 
64.4926 25.0496 0 
58.1039 21.4991 0 
47.9186 3.80692 0 
53.4518 16.9048 0 
68.3162 26.5651 0 
60.1497 23.1006 0 
56.0581 19.8976 0 
67.0633 26.3486 0 
49.1637 9.73804 0 
49.7243 11.1294 0 
47.3684 0 0 
48.6031 8.34672 0 
50.2849 12.5207 0 
47.3684 2.04975 0 
61.4051 24.1834 0 
66.035 26.3486 0 
48.0426 6.9554 0 
54.0123 18.2961 0 
50.8454 13.912 0 
72.7686 27.8107 0 
73.8843 27.9053 0 
75 28 0 
47.482 5.56409 0 
71.3136 27.8374 0 
62.6606 25.2661 0 
58.6645 22.8904 0 
51.406 15.3033 0 
56.6187 21.2889 0 
46.875 1.02487 0 
46.9318 3.80692 0 
69.8586 27.8642 0 
54.5729 19.6874 0 
51.9666 16.6946 0 
68.8303 27.8642 0 
46.3816 0 0 
64.203 26.5651 0 
46.3816 2.04975 0 
67.802 27.8642 0 
57.1793 22.6803 0 
52.5271 18.0859 0 
48.2391 10.9192 0 
59.6464 24.5 0 
47.6785 9.52785 0 
48.7997 12.3105 0 
72.856 28.9053 0 
75 29 0 
73.9717 29 0 
47.1179 8.13653 0 
66.7737 27.8642 0 
49.3602 13.7018 0 
71.8278 28.9053 0 
45.8882 1.02487 0 
60.9019 25.5828 0 
46.5574 6.74521 0 
49.9208 15.0931 0 
63.0719 26.7325 0 
70.3727 28.9321 0 
53.0877 19.4772 0 
65.7455 27.8642 0 
69.3444 28.9321 0 
62.1465 26.5651 0 
50.4814 16.4844 0 
58.1612 24.2899 0 
45.3947 0 0 
45.7749 5.05301 0 
45.3947 2.04975 0 
68.3162 28.9321 0 
54.7594 21.7738 0 
51.4788 18.4418 0 
64.6143 28.0315 0 
67.2879 28.9321 0 
45.2247 3.29583 0 
75 30 0 
73.9717 30 0 
72.9434 30 0 
44.9013 1.02487 0 
71.9152 30 0 
46.7539 10.709 0 
47.3145 12.1003 0 
66.2596 28.9321 0 
46.1933 9.31766 0 
70.8869 30 0 
47.875 13.4916 0 
52.0394 19.8331 0 
59.1432 25.8994 0 
55.3199 23.1651 0 
45.6327 7.92634 0 
69.8586 30 0 
48.4356 14.8829 0 
63.4832 28.1989 0 
65.2313 28.9321 0 
44.4079 0 0 
60.3877 26.8818 0 
53.2742 21.5636 0 
68.8303 30 0 
44.4079 2.04975 0 
62.5578 28.0315 0 
48.9962 16.2742 0 
56.4771 24.5037 0 
44.8502 6.23413 0 
67.802 30 0 
61.6323 27.8642 0 
44.2378 3.29583 0 
49.9936 18.2316 0 
64.1002 29.0994 0 
43.9145 1.02487 0 
66.7737 30 0 
59.3793 26.9231 0 
44.0678 4.54192 0 
50.991 20.1889 0 
60.6239 27.9055 0 
65.7455 30 0 
63.0719 29.0994 0 
57.4591 26.1133 0 
45.8292 11.8901 0 
45.2687 10.4988 0 
46.3898 13.2814 0 
43.4211 0 0 
52.2258 21.9194 0 
44.7081 9.10747 0 
43.4211 2.04975 0 
46.9504 14.6727 0 
62.1465 28.9321 0 
58.4385 27.0222 0 
64.7172 30 0 
44.1475 7.71616 0 
47.511 16.0641 0 
59.6155 27.9468 0 
43.251 3.29583 0 
53.4606 23.65 0 
63.6889 30 0 
42.9276 1.02487 0 
61.1182 28.9321 0 
48.0715 17.4554 0 
43.365 6.02395 0 
54.6178 24.9885 0 
49.069 19.4127 0 
62.6606 30 0 
58.6747 28.0459 0 
50.8222 21.6733 0 
42.4342 0 0 
60.1098 28.9734 0 
55.775 26.3271 0 
42.4342 2.04975 0 
52.057 23.4039 0 
56.7544 27.236 0 
44.344 11.6799 0 
49.6295 20.804 0 
44.9046 13.0712 0 
61.6323 30 0 
43.7834 10.2886 0 
45.4652 14.4625 0 
43.2228 8.89729 0 
57.7339 28.1449 0 
46.0258 15.8539 0 
59.1213 28.9734 0 
41.9408 1.02487 0 
42.6622 7.50598 0 
46.5863 17.2452 0 
60.604 30 0 
55.9067 27.3302 0 
52.3471 24.5393 0 
53.1846 25.3346 0 
47.1469 18.6365 0 
41.7707 4.59487 0 
56.8861 28.2391 0 
41.4474 0 0 
58.1804 29.0725 0 
50.6533 23.1578 0 
41.3487 1.8996 0 
59.6155 30 0 
54.3417 26.6731 0 
55.1468 27.4186 0 
47.7075 20.0278 0 
49.4607 22.2884 0 
57.2873 29.0725 0 
56.0384 28.3333 0 
43.4194 12.861 0 
42.8588 11.4697 0 
43.98 14.2524 0 
40.8553 0.874731 0 
58.627 30 0 
50.9434 24.2932 0 
40.9539 3.34878 0 
42.2982 10.0784 0 
44.5406 15.6437 0 
48.2681 21.4191 0 
41.7376 8.68711 0 
45.1011 17.035 0 
41.068 6.0769 0 
40.4605 0 0 
56.4396 29.1666 0 
55.2785 28.4216 0 
41.177 7.2958 0 
57.7339 30 0 
45.6617 18.4263 0 
40.2632 1.74946 0 
51.2336 25.4286 0 
52.071 26.2239 0 
52.9085 27.0192 0 
46.2223 19.8176 0 
49.2716 23.6764 0 
53.7135 27.7646 0 
55.6371 29.1666 0 
56.8408 30 0 
54.5186 28.51 0 
39.8684 0.874731 0 
[...]
POINT_DATA 2394
SCALARS cohesion float 1
LOOKUP_TABLE default
41.1667
41.2338
34.6222
34.4584
43.2097
36.1814
34.4487
36.9749
42.7165
33.5518
37.914
34.7465
32.6603
42.6374
30.5822
30.6112
36.6369
35.0213
30.7792
41.0913
26.6609
30.6604
28.673
34.6423
32.863
24.1043
43.3195
24.3834
35.8807
24.2135
25.0052
32.2086
34.5152
26.6143
43.5563
28.2439
36.7972
28.5311
26.8954
29.5183
33.9459
29.8687
24.5249
44.5171
31.4803
28.4082
35.6126
26.0957
32.9042
33.5978
34.7051
42.7421
37.4422
28.5344
35.047
34.5547
28.6587
30.2087
32.5667
40.13
33.0863
39.4126
28.1877
43.6961
37.2617
34.0477
38.2338
36.4737
32.4812
26.2888
37.0322
26.8525
33.6604
35.8585
41.8336
27.784
36.8495
38.8777
37.43
34.3869
39.0687
32.0583
25.2903
35.7057
33.8533
42.5057
32.4441
33.0882
28.5559
30.2766
32.5577
31.7647
31.6224
28.6481
25.9186
27.6883
40.471
33.0672
29.2787
28.3567
33.6031
26.7083
31.0234
29.6074
29.0887
26.4196
31.0628
28.9532
30.1582
26.9488
41.2075
28.6196
31.9253
33.3615
28.7289
35.2861
36.1108
30.3374
31.6843
37.2226
32.9779
27.5428
28.7832
26.4184
36.2505
39.2886
26.3082
39.422
32.6619
34.9169
33.4164
30.9928
33.139
29.303
28.1319
34.0729
28.8474
28.4137
39.2012
30.8208
24.3753
33.1352
25.7851
32.6367
26.692
33.683
27.4961
30.9685
35.3896
35.342
28.9383
27.2959
34.9325
28.3008
27.3083
36.4056
28.4548
24.3644
28.1641
31.7573
35.2442
30.5744
32.4648
33.6242
34.4488
27.8951
36.735
29.6482
34.7521
25.9366
34.8586
37.0051
25.5201
35.9593
33.5193
36.7776
31.089
34.509
26.1331
33.0292
33.6363
37.0088
35.3486
26.3375
37.0505
28.0439
32.6529
37.707
24.9447
38.5417
27.5058
40.7795
34.0791
40.7791
30.8807
32.8994
35.5143
41.578
29.6535
37.2372
44.1746
25.929
39.2507
25.3412
33.1015
34.7351
40.9626
44.0374
28.6215
31.8356
32.9313
37.8301
27.712
31.0862
32.7355
43.9137
32.3065
40.4543
32.1767
45.5399
41.3551
38.4594
25.3436
42.4563
44.0363
49.0365
31.0878
32.2769
43.3326
28.9383
47.8877
41.106
40.1921
52.9263
26.3236
35.9038
31.8937
34.616
56.4772
24.8154
30.2297
30.2152
43.2931
36.7514
39.027
42.3465
61.5512
45.0528
29.8565
58.8913
42.081
29.698
41.6968
63.2337
34.3566
30.8928
63.4637
23.3251
34.2726
36.5325
42.9041
46.2083
57.6868
29.4822
59.5455
27.3708
51.4284
32.6687
30.4846
47.5292
45.4189
55.2266
28.9305
32.8004
44.1923
32.454
53.0488
43.3955
41.993
52.1707
22.7429
37.4622
41.6858
29.3615
51.8501
49.286
45.6246
32.488
27.9441
30.5593
37.1485
32.4907
26.325
43.8044
39.7575
41.8035
34.3084
46.7185
22.9561
46.8021
41.1872
45.2645
39.9684
30.0404
38.3228
44.3264
38.9261
52.7397
32.672
30.4594
38.5412
26.2897
45.0413
29.653
39.1638
36.5937
43.4228
40.2306
25.6147
22.6945
39.2825
40.8955
43.4038
42.4127
39.4245
30.9009
33.0314
52.214
39.0201
41.2417
27.208
30.094
39.9722
43.5241
30.7805
37.0799
46.2338
39.9242
37.8849
35.2195
40.8932
33.5515
22.2286
45.0351
27.6898
32.8075
40.167
35.1669
33.016
40.7393
32.2118
44.3553
46.052
28.7853
48.4842
27.1706
30.7434
37.4053
29.5791
28.4902
38.5727
22.4929
28.7143
32.1856
41.4515
33.2777
32.4824
28.143
47.9862
47.304
28.6366
30.0954
32.9714
28.776
40.6798
42.0838
25.7954
38.7008
28.4545
30.7236
34.0343
46.3595
24.1593
25.417
25.9686
35.7397
23.8306
32.3497
49.1079
39.9331
39.5583
22.1215
32.0151
22.8837
48.1119
30.6457
23.0505
28.1029
27.2187
26.6153
22.1806
48.6622
31.1792
31.116
35.3764
32.9009
44.4848
28.6101
28.75
28.7684
39.5016
22.4434
45.2688
28.5572
21.5076
30.2012
30.1119
41.8011
24.837
28.4946
51.472
21.803
28.3684
26.3378
29.1427
35.3841
28.5886
37.3528
26.4693
28.3231
39.1934
34.4016
23.7239
28.4019
28.5532
26.9313
27.1355
26.5543
21.2246
26.7901
28.7219
46.2752
28.4636
35.4828
25.9742
45.3317
48.4291
26.3129
44.9265
38.1381
26.3276
44.1025
24.9671
28.5653
27.5756
22.9603
36.8997
25.595
26.3848
23.5118
30.5277
30.4605
29.8645
26.0049
21.7905
27.8602
29.0434
28.4307
20.9851
25.1903
20.8316
37.9561
49.7648
22.2491
25.6578
28.2659
21.6143
44.0757
27.5686
45.3845
28.004
38.5703
35.4926
26.161
45.9356
28.0349
19.9541
25.0617
35.3174
32.1149
21.7619
27.1801
43.2209
25.6535
20.8377
27.2957
25.7794
30.3328
23.9441
48.4727
24.669
21.1971
39.4144
27.2578
26.4093
18.8998
26.7457
42.6898
17.2089
41.311
39.5768
43.6936
24.7254
25.5368
48.1081
36.0755
20.7159
33.9286
25.5804
20.7883
34.6522
26.0772
23.803
16.1715
26.7217
21.1262
35.2151
37.5284
21.0399
27.7456
24.7723
43.6916
25.3014
23.7749
16.4818
15.5343
47.1337
41.322
23.7416
21.0877
41.9862
36.5881
47.8793
21.2853
22.4982
31.4451
28.1656
25.7974
36.8511
38.6127
36.5674
26.1915
31.6892
27.0237
22.9322
21.2257
35.5356
22.342
31.1249
24.4968
20.5321
17.3077
14.35
49.3464
40.0376
15.7103
22.2938
21.5851
21.7338
21.5693
29.5179
41.9002
38.4364
39.8541
46.4247
33.1195
16.522
40.7673
21.5527
21.7045
27.6221
24.6242
21.0641
26.2252
27.5622
26.3822
38.1888
28.0218
37.3803
15.4792
16.1128
13.5506
19.4534
33.1777
21.3116
21.0548
35.8712
21.5256
20.8578
49.2653
29.0262
40.2814
21.0781
34.8738
39.8098
21.0874
20.9414
27.4127
27.9905
22.5482
43.829
37.8548
44.6844
20.5679
20.761
30.8111
30.036
20.824
18.2324
14.1072
13.9487
28.3749
27.0846
17.7736
21.9133
20.5
34.9721
30.4732
20.5038
40.3969
48.5858
34.8684
20.3099
18.6283
22.0679
26.5088
43.6222
20.22
26.5004
39.7747
20.4628
29.6129
38.5457
19.0736
17.2087
20.4553
16.2201
13.2981
20.2345
20.2499
23.2152
40.1534
47.5316
20.2477
35.9858
32.8725
29.5813
19.8513
26.0878
20.0363
16.4689
30.595
48.1359
41.6022
20.1138
20.0633
13.3974
36.8047
20.0209
25.1355
32.0415
19.7365
27.4604
23.0628
19.9635
46.6858
33.9645
18.7202
37.9391
41.0173
20.2599
19.7735
19.7716
19.7571
23.2076
13.2154
19.9069
17.4371
19.7983
14.426
20.1084
19.466
19.573
18.5836
46.4302
35.9011
35.686
19.8706
34.1024
20.1317
26.7858
26.0611
28.5487
19.5175
28.464
44.4747
21.7407
33.1053
20.052
39.8692
28.9799
20.0697
16.3827
20.1684
19.2582
19.5249
48.9521
13.8546
20.0059
19.9894
19.8925
21.8396
19.5046
13.2805
20.1145
37.8397
29.3807
39.2407
27.0101
20.0048
19.6137
18.0704
20.2532
19.7535
20.0732
19.4898
16.8467
20.0554
14.8733
19.8466
33.392
26.5794
19.5001
19.9261
26.867
20.1618
20.3659
14.3571
20.3502
43.4348
37.0292
19.5546
21.7269
20.3169
31.618
25.85
19.9084
19.9644
13.6818
20.1606
20.3462
32.3897
27.0972
41.518
19.6048
35.0208
18.9676
20.0167
20.1895
20.4577
50.034
20.7318
21.5483
19.6694
20.6374
15.7434
20.0197
20.2616
17.896
24.6038
19.7195
37.8562
20.8523
33.7079
20.0512
20.3734
15.9344
20.4582
19.8368
20.9773
20.1312
22.9757
20.4509
21.0155
17.6278
14.3954
20.5405
19.8899
26.6066
36.8944
26.6419
20.5511
20.1729
21.3302
20.4759
20.6077
20.013
20.8987
20.2165
20.6634
26.37
20.1004
18.5229
21.5095
20.7483
20.2578
35.7821
21.4494
14.6264
20.5889
20.2328
21.7973
20.8732
20.3106
20.8522
36.719
20.3265
20.6346
21.2982
17.9328
36.487
21.6535
20.9182
27.8
20.3778
22.3671
30.5949
20.7089
20.4641
26.1932
21.0361
22.0735
22.9756
20.4409
21.026
20.554
20.2825
25.2845
14.5391
21.0861
20.4978
36.7722
22.4798
20.8681
20.6943
21.2208
22.6793
21.1833
34.6336
20.6117
20.9274
25.0607
20.7795
21.6897
47.5038
37.7923
17.4202
21.2441
20.7009
30.1182
21.0121
20.893
22.2431
21.2317
21.3314
20.7926
26.0439
22.8846
20.9632
25.9126
21.3786
20.8713
21.7155
22.929
21.0586
21.7546
20.9855
21.4355
33.9491
21.1495
21.811
21.8939
21.1477
22.9168
21.5049
22.1471
21.1386
23.6002
21.317
22.1664
21.5967
21.2543
22.3403
22.6116
21.4676
21.708
18.7218
15.5362
22.4275
21.4089
22.2597
23.5892
38.1747
21.783
21.8262
21.5615
22.8444
22.368
22.935
21.5577
24.1032
22.8955
22.1367
21.9639
22.8315
20.8802
21.7103
22.5495
23.0467
36.3249
22.1117
22.9844
21.9352
22.2832
25.1192
24.2007
22.7082
23.0702
21.908
23.5066
23.1581
25.7995
28.017
24.8485
23.1658
22.2931
30.2342
29.3332
22.4774
23.2757
22.1234
23.1795
22.5034
23.0455
22.8724
23.4365
24.894
21.0422
25.1606
22.3676
23.3634
23.3674
24.1311
22.7552
17.2492
23.3734
25.0312
23.3938
23.6787
34.2804
22.6402
23.0152
23.8045
24.2945
22.9051
25.9566
23.6299
25.6086
36.6344
23.5182
24.692
30.3353
42.9749
22.9177
23.9666
23.2047
23.3329
32.8979
25.1053
23.9603
23.6976
23.7146
24.1842
23.2482
27.2505
23.6991
22.685
22.0352
23.9936
22.6221
40.2707
24.2601
24.2791
24.4198
26.3639
23.1937
23.6178
24.0988
17.6847
24.1547
24.6287
24.9331
23.73
24.6754
24.0142
26.641
26.0293
24.5407
24.2433
29.36
22.5961
24.9885
34.4328
25.1632
24.9311
23.9126
27.4055
24.4227
22.8064
25.028
28.3994
27.3563
25.9359
23.4849
25.3994
25.1121
23.6356
25.3796
22.7863
23.8496
24.9057
25.2387
25.5756
24.2617
23.5201
25.7907
17.1444
25.3465
26.0733
22.9579
25.4073
24.3966
26.7912
33.3127
26.1769
26.1565
23.0135
40.3574
28.9007
35.438
23.2311
25.4733
29.7565
39.8301
28.9339
26.6687
20.6024
25.9579
24.5206
26.824
31.2531
26.4906
26.1258
25.7649
22.8705
31.2895
29.3991
24.7792
24.035
26.9784
26.5889
27.4088
25.427
26.7701
25.9035
23.6871
25.5544
18.2757
28.8358
24.3156
27.196
27.233
29.7649
27.9713
28.6915
27.0553
33.2426
30.053
25.9078
31.1624
23.5479
26.8646
24.4698
26.5773
22.7998
27.9697
27.5302
28.3885
27.1531
24.7896
25.9276
21.2352
21.1618
24.651
28.6318
28.7144
27.6147
40.7747
27.3298
31.8973
25.7877
28.3372
28.3627
24.5927
30.5986
27.9576
34.0394
29.558
18.0227
26.7314
31.5936
39.4641
27.2157
23.0208
29.2594
28.7873
29.3201
27.2526
27.4824
25.6396
28.2115
27.5268
26.7966
30.1033
25.9501
28.7916
27.1411
25.5682
23.2609
29.7244
28.7336
24.4888
35.2203
22.234
23.9231
26.8783
30.2211
29.1835
28.0029
31.2551
26.8874
25.9106
31.8786
28.549
31.5976
23.2947
29.9116
29.2524
23.5864
28.0419
27.6387
28.2777
19.5518
24.6341
26.4071
26.7026
31.6124
42.5623
28.8597
28.2017
23.2483
29.7983
34.4668
32.8274
29.5197
20.4642
32.2841
24.6527
23.9749
31.9288
29.2313
32.476
27.6334
26.5541
30.1779
22.4286
22.2463
27.6372
29.1745
29.5411
30.0666
31.6456
37.4302
29.4092
29.3059
28.8772
31.4565
28.0458
27.1182
27.6463
32.3505
26.8324
29.7982
22.893
27.0712
20.1521
28.4961
19.1168
29.7796
23.4624
21.5337
31.0583
32.7155
28.3531
33.9564
28.7396
26.6393
24.5271
45.0861
28.832
30.9101
27.4347
27.5348
28.9869
25.2558
26.6152
32.9531
30.5393
31.5679
20.3982
29.9791
25.7847
26.9016
28.1247
29.43
26.1338
26.5714
29.6688
32.4853
19.8385
38.3765
33.3677
27.6925
26.6326
23.12
31.9939
27.7153
31.511
33.8274
25.6135
28.7904
25.2886
24.338
22.0862
25.0228
26.9081
26.324
18.1898
28.6191
32.787
41.1939
26.0163
33.344
19.3805
31.6033
26.8985
31.2391
27.6112
29.5294
27.4282
22.8416
27.3957
23.4563
24.8622
27.766
20.1392
24.812
31.958
24.8139
33.4187
33.7677
32.2548
48.2832
44.6822
33.1247
25.3023
28.5711
25.2054
23.5184
21.282
30.8903
25.5919
34.2418
29.8503
27.2292
23.0455
30.3231
41.8415
25.1637
20.5631
28.8143
26.6647
29.0442
28.0771
19.8039
33.8312
29.8968
24.2097
37.1363
22.9981
31.4118
22.9443
32.3099
23.5568
25.4255
27.7303
26.251
29.711
25.326
20.5943
33.5957
31.3034
24.6035
24.24
22.509
20.4589
24.0731
41.0399
32.755
35.2956
29.4529
31.2793
39.7259
26.6823
30.877
24.8273
31.6204
27.7565
20.7688
31.193
25.3104
25.815
32.4601
28.4387
27.9361
22.1312
28.4449
39.5172
35.1454
20.7931
30.6055
23.1883
35.4315
29.9422
30.7363
25.4627
50.7324
20.1874
25.2459
19.1085
23.4708
23.553
36.7339
25.0866
33.3848
21.771
33.1684
30.5382
27.5031
22.3997
26.7839
27.2653
39.8922
28.0541
30.8502
44.3602
34.4912
30.8279
27.6718
23.1996
29.6024
20.9156
27.5791
35.3933
26.6759
19.2994
27.4476
47.9148
34.0103
21.3345
22.276
21.8985
24.5372
29.9125
25.7775
29.8358
24.4741
22.7272
39.1994
28.1329
20.543
24.2476
26.5864
22.5942
29.5149
32.3107
23.5342
30.1391
21.0464
23.4298
20.8002
31.9505
18.6902
27.5715
29.7736
31.5714
35.9089
31.2009
21.4903
51.7679
43.4288
21.9926
24.4479
25.7982
30.6082
21.0208
28.4968
26.059
45.7398
26.967
32.1594
49.5809
22.9821
22.8815
21.1808
35.7824
26.1459
22.7411
30.5919
22.9805
21.2003
27.0552
25.4517
18.3284
23.7696
27.1982
24.7293
34.2986
22.089
31.6517
41.1546
21.7656
25.028
21.917
28.1517
35.5302
32.4481
29.5104
19.7703
30.8202
22.7054
21.4298
27.4577
48.5917
22.5964
23.9097
44.3621
23.0086
22.4798
27.9885
21.4157
31.4916
19.9159
24.1679
29.7242
21.1755
30.9337
23.2349
26.4837
25.4951
31.4077
22.9934
28.6609
48.4978
36.1058
36.5235
22.0907
21.5801
26.6514
21.6284
44.6877
25.9735
33.1174
25.0968
30.0823
35.5249
22.407
54.1223
30.3702
21.406
22.0696
27.544
22.9037
36.3568
21.5024
25.4076
27.9254
35.3136
34.4283
20.5017
29.9025
29.2069
21.3144
22.1475
24.7135
22.8389
31.6659
37.4935
32.5139
21.9638
24.6029
21.3077
22.009
28.2264
21.2761
39.4259
30.9165
27.0841
23.5962
23.829
23.8413
28.6938
21.3732
53.1593
22.9183
27.303
31.2541
22.1926
21.4422
49.0308
32.3754
26.7978
30.689
30.7194
26.9715
22.6698
26.0129
29.4398
32.1955
20.3719
21.2885
21.1125
24.9499
28.0451
52.037
70.2355
27.2484
21.4875
31.2675
33.9321
37.1683
22.717
38.619
31.8226
30.4942
26.7156
22.7356
29.9562
21.2511
22.2894
26.6479
25.7839
20.5744
35.5798
21.6977
28.3417
25.707
21.2003
22.8923
35.4035
30.4303
27.5823
29.8741
21.2447
26.6883
22.1222
22.5718
27.6274
22.1802
31.2777
71.8355
21.1422
20.3293
30.1964
29.1049
21.3182
29.7269
23.1429
22.0288
34.4833
48.1321
26.4157
22.9893
24.009
22.2434
32.1858
27.6421
20.5346
21.137
34.6927
26.5852
21.1801
22.573
28.6073
21.3191
61.6709
27.5796
30.4008
39.8493
23.2158
26.1503
22.8535
20.6823
21.1611
23.2027
20.8677
36.1208
46.8372
30.9441
35.6205
22.2381
21.3585
28.817
46.7083
21.3904
32.4667
27.5831
22.2826
22.3847
20.601
22.5276
20.7948
24.3819
35.0142
22.1931
23.2818
21.3149
30.4924
21.4199
28.8883
55.4295
23.4318
26.2323
20.4307
34.2677
24.7138
20.9493
31.1405
21.3289
22.0371
23.4265
21.9315
27.4534
21.2236
44.7031
20.87
40.8483
21.3427
31.6137
20.9992
23.3322
22.8052
21.8453
22.3356
29.5092
29.2085
21.2094
20.9552
27.047
51.8826
21.4498
20.7116
23.5436
22.6045
23.4922
21.622
22.6468
69.1244
21.1983
22.0114
39.9929
21.4558
28.1816
34.0007
32.3411
33.1215
31.3058
23.8263
29.2124
22.1632
22.6744
21.6597
31.3274
21.2672
21.2347
28.5224
37.4089
21.5272
23.0329
21.1872
23.7434
27.2842
29.4973
29.5666
23.6331
21.6855
21.2555
21.4957
22.0698
63.9841
36.8019
28.1761
22.4813
26.2366
24.4695
23.8361
21.2681
21.553
21.4847
31.0931
23.3561
21.3631
47.7036
20.9143
37.0203
24.6912
22.1411
28.9977
21.5124
27.2385
21.3625
23.1367
72.1091
35.3253
21.5516
21.7421
23.0055
21.6734
21.2791
23.627
43.0357
32.3959
25.34
38.1779
22.6682
21.535
26.2102
24.6589
25.4402
21.8614
21.7701
25.7281
21.3079
22.0602
21.5724
21.9291
20.1749
35.6143
21.2805
69.1204
22.7005
21.5549
24.8302
28.4378
32.6101
28.1046
27.9915
24.5197
21.6997
21.2741
22.7235
21.6008
47.874
29.5328
21.5611
31.0511
22.8706
21.2801
21.5548
24.3576
21.6776
30.1202
60.5216
23.0422
19.9777
21.264
21.5468
28.4414
23.7325
21.8006
21.235
21.2684
27.8931
23.6272
21.5071
22.093
54.3612
23.7779
21.2444
27.5917
27.3783
22.3955
33.1312
20.7267
24.1286
21.5214
20.4022
21.278
27.7284
57.7754
23.719
23.7862
22.9846
32.6545
21.4797
22.0537
22.1142
21.2823
25.2745
25.918
23.8577
31.3771
21.4797
29.0932
47.9701
21.9455
43.0455
29.8974
24.036
21.231
32.8607
20.4459
21.3895
23.8177
22.3925
46.1555
23.8426
27.1405
31.9122
21.1836
22.7607
21.398
77.1237
22.8862
21.2967
20.8758
23.7732
22.6072
24.3641
21.2996
26.3395
20.7287
22.3698
20.266
41.6622
21.1237
29.1062
35.4694
21.2976
19.3838
23.8164
26.2015
21.2722
28.6207
22.0556
28.6254
75.6174
24.6646
21.1439
24.6373
20.2003
28.7384
31.0979
31.2017
21.1647
25.9677
22.2219
20.23
31.2186
41.6459
21.1049
23.6838
20.9662
21.2112
23.2303
25.3875
22.3235
71.556
23.7765
21.1488
26.815
20.0002
24.939
21.0847
39.476
19.8687
23.5481
21.1209
22.7573
26.3768
29.1021
21.0144
21.0993
24.2614
29.7735
20.4522
34.596
22.5096
24.3062
25.6765
20.8854
78.8074
31.7385
28.1924
20.9923
23.3185
33.0423
19.735
21.1168
24.7256
23.5415
22.752
23.2992
38.3834
22.617
28.0274
21.0826
25.64
31.1218
43.5571
17.9073
21.0331
26.5614
28.1381
25.2163
22.9879
19.5951
49.0568
21.0303
23.2349
25.137
24.2708
18.7831
22.6443
21.17
44.1997
20.1843
24.3228
24.4859
23.1322
31.1731
18.6038
21.0161
26.1833
24.445
31.1793
23.3142
47.1476
26.5856
22.3629
21.5332
25.8485
19.7706
33.865
20.8959
30.3229
24.8718
30.7283
25.2779
23.6904
23.8504
29.3669
21.4298
17.0059
24.6492
57.0952
21.0008
19.537
28.0707
22.3306
24.5857
28.1497
25.6976
21.5452
23.7863
21.1659
19.6869
28.7538
28.2778
32.962
19.6517
22.5915
60.3214
23.2398
26.7473
29.1284
30.4382
23.3401
21.538
21.8385
26.7608
25.1253
16.3626
25.4971
21.0714
24.8101
31.3402
31.405
23.4592
45.4592
23.1248
22.9707
21.5671
28.2936
21.0692
20.3089
23.1726
24.3249
35.5235
29.8962
25.9656
16.5014
23.2412
24.778
21.6023
21.2804
49.796
22.3086
22.9352
32.7545
22.097
19.8357
20.6207
24.7379
23.7303
25.2713
39.1222
25.5102
30.4192
21.8314
27.7306
21.3931
22.5528
28.2941
36.3692
21.1855
23.987
17.6989
27.4111
24.6591
22.1563
30.9163
24.8761
21.5035
19.6724
20.3307
27.0158
45.8627
25.4642
30.5064
19.3073
23.1896
22.59
33.8832
28.5324
21.5745
20.4513
25.3911
30.2846
20.4789
26.9327
25.8501
44.3655
20.0998
27.1761
26.6876
22.5845
21.8977
28.7943
18.7827
25.2495
25.4345
18.6213
36.4049
24.2742
25.8197
27.0669
31.691
22.8701
43.1101
25.2521
23.5142
22.2715
48.2793
24.3129
16.8665
25.6451
23.2614
29.6718
26.3903
23.604
30.5235
22.3179
16.7192
24.7351
17.9126
23.7241
22.7292
36.2882
26.5309
23.7411
27.9869
28.0603
25.1171
35.8338
41.9484
24.752
25.6313
32.975
16.617
34.7619
32.7825
34.1661
23.0274
39.5018
24.0733
18.433
30.5212
16.7891
20.693
21.7126
25.705
26.1394
24.1842
26.7815
23.374
24.2893
36.3329
24.8003
24.5215
23.9545
47.4979
20.319
26.1763
33.694
23.8945
29.4902
23.7958
17.5084
34.7923
24.7
18.7334
38.1828
26.1171
39.1964
25.9967
37.406
24.5866
26.0774
29.7435
21.9327
25.1589
33.9367
32.5994
34.3743
23.7225
16.1196
16.9642
26.618
27.0788
48.981
26.5899
26.4151
25.6577
21.9512
26.7992
26.4149
31.2987
22.8125
21.1501
23.6502
46.4968
35.5816
17.7813
28.4772
33.1175
39.0678
16.1941
22.1289
23.5322
28.6836
27.3058
18.5354
39.2029
35.9033
26.6778
30.069
14.5642
24.2847
31.64
26.8163
26.316
23.4278
29.4096
21.4221
16.6075
26.9988
23.9771
30.823
28.1069
27.7502
24.8526
27.921
34.909
36.6654
28.1318
18.3428
35.8171
35.2722
26.9441
39.4487
24.9615
23.1313
26.9372
32.702
15.8987
41.2899
23.1157
19.6619
36.1838
33.9264
29.2529
32.6536
27.0896
52.4695
27.8038
25.6843
25.7068
19.7626
23.1392
33.221
28.6927
36.1942
22.9313
18.0041
26.7978
27.7536
20.9181
27.6294
26.7232
36.5406
34.962
39.6988
26.1232
19.2338
16.5138
31.2389
49.6328
29.4038
27.2279
39.7347
28.3986
38.2823
26.3386
21.4037
37.8572
22.7766
29.2525
35.1575
16.0131
23.4781
28.5488
28.1641
44.0588
40.1527
25.2474
28.104
26.4355
18.5707
24.2811
47.9097
19.3728
18.1512
15.0362
17.1565
32.3631
27.7926
27.0212
28.459
29.346
20.6675
24.5028
36.0298
16.4085
22.6974
21.7924
43.8888
28.2653
27.2571
28.4355
26.0977
18.7263
26.5399
26.146
15.3967
17.61
27.0742
24.3977
28.5313
27.2809
25.3939
15.6675
23.5204
19.1129
18.2019
20.5464
27.2798
22.7315
25.7474
28.3938
26.9536
25.6941
19.8695
19.8553
23.5655
24.9608
25.5285
27.9585
26.801
15.9811
26.9291
17.4978
14.445
21.8774
27.5128
18.7212
24.8681
25.1751
26.4471
18.067
19.1857
22.965
16.0137
14.7735
26.3507
26.8995
20.8745
26.344
18.3102
14.1626
18.4902
16.497
26.2031
24.9733
26.3155
18.8142
17.7877
23.8432
25.9608
25.915
14.0099
18.8658
18.9192
25.7972
25.4377
20.9223
19.305
24.6705
14.7435
25.3864
18.7614
24.6556
25.0295
24.9124
SCALARS friction float 1
LOOKUP_TABLE default
7.98606
7.96675
8.69274
8.77067
7.87639
8.43772
8.87993
8.35602
8.04416
7.85456
8.66077
8.94628
7.76581
8.083
7.06789
7.58751
8.97831
9.53425
7.69288
8.21765
9.18944
8.06409
9.45971
9.94065
9.2688
9.62288
8.23363
8.98564
10.2605
9.23505
10.4643
9.46979
9.96253
9.70745
8.4195
10.6793
10.7361
11.5622
10.6724
9.95314
10.3955
11.6321
10.541
8.44202
11.4968
11.3198
11.4038
12.3682
11.1616
10.6862
10.4404
8.681
9.83975
11.6839
12.0173
10.9439
13.8201
11.7144
12.1323
9.77667
11.0282
10.0225
12.3076
8.63665
10.4683
12.1782
10.044
10.5683
11.3419
13.0049
10.2167
15.5284
11.7572
10.1866
8.82389
13.4155
9.56255
10.99
10.7606
12.3172
9.81809
11.6022
13.7049
9.68035
11.6256
8.83616
9.56255
12.5822
16.8122
9.4263
10.4701
11.7525
11.8397
13.5176
13.1724
9.27733
9.12177
11.9584
9.92718
9.42659
12.8496
9.10516
10.7047
10.0308
16.2813
9.00415
12.1827
13.6122
9.79706
12.4586
9.21093
11.4519
12.8441
12.9023
9.99519
10.5281
10.8817
12.641
10.5411
10.604
14.5014
9.10682
13.1334
12.4131
9.81144
9.58914
11.9878