# vtk DataFile Version 3.0
File generated from DClib
ASCII

DATASET UNSTRUCTURED_GRID
POINTS 2394 float
75 0 0 
74.0132 0 0 
75 1 0 
74.0132 1 0 
73.0263 0 0 
75 2 0 
72.9355 1.08748 0 
73.9223 2.08748 0 
72.0395 0 0 
75 3 0 
72.8446 2.17496 0 
71.9486 1.08748 0 
73.9223 3.08748 0 
71.0526 0 0 
75 4 0 
72.8838 3.58748 0 
71.5238 2.50694 0 
70.6278 1.41947 0 
73.9615 4.5 0 
70.0658 0 0 
75 5 0 
71.563 3.91947 0 
72.9229 5 0 
69.641 1.41947 0 
70.203 2.83893 0 
73.9615 5.5 0 
69.0789 0 0 
75 6 0 
69.1476 2.44434 0 
72.9229 6 0 
71.6239 5.5 0 
70.2639 4.41947 0 
68.5855 1.02487 0 
73.9615 6.5 0 
68.0921 0 0 
75 7 0 
68.0921 2.04975 0 
72.9229 7 0 
71.6239 6.5 0 
68.6542 3.74338 0 
67.5987 1.02487 0 
73.9615 7.5 0 
70.3248 6 0 
67.1053 0 0 
75 8 0 
67.5987 3.34878 0 
67.1053 2.04975 0 
68.7151 5.32391 0 
73.0785 8.1 0 
66.6118 1.02487 0 
74.1171 8.6 0 
66.1184 0 0 
75 9 0 
66.6118 3.34878 0 
66.1184 2.04975 0 
71.6239 8.5 0 
67.1053 4.64782 0 
69.1755 7.15213 0 
70.3248 8 0 
73.2341 9.2 0 
65.625 1.02487 0 
74.1171 9.6 0 
67.5657 6.47604 0 
65.1316 0 0 
75 10 0 
65.1316 2.04975 0 
71.7795 9.6 0 
73.0785 10.1 0 
64.6382 1.02487 0 
65.1137 3.65591 0 
73.9615 10.5 0 
65.6071 4.95495 0 
68.0262 8.30425 0 
69.1755 9.15213 0 
64.1447 0 0 
66.0569 6.38442 0 
75 11 0 
71.6239 10.5 0 
70.3248 10 0 
64.1447 2.04975 0 
72.9229 11 0 
63.6513 1.02487 0 
64.1268 3.65591 0 
73.9615 11.5 0 
66.5173 8.21264 0 
63.1579 0 0 
75 12 0 
63.1579 2.04975 0 
64.1089 5.26208 0 
73.0785 12.1 0 
67.2259 9.58662 0 
68.3752 10.4345 0 
62.6645 1.02487 0 
64.5587 6.69155 0 
63.14 3.65591 0 
74.1171 12.6 0 
62.1711 0 0 
65.0085 8.12102 0 
70.3248 12 0 
71.6239 12.5 0 
62.1711 2.04975 0 
75 13 0 
65.717 9.495 0 
68.9358 11.8258 0 
62.6466 4.95495 0 
73.2341 13.2 0 
61.6776 1.02487 0 
63.0969 6.3615 0 
74.1171 13.6 0 
61.6776 3.34878 0 
61.1842 0 0 
66.4255 10.869 0 
63.5467 7.79097 0 
61.1842 2.04975 0 
71.7795 13.6 0 
75 14 0 
73.0785 14.1 0 
60.6908 1.02487 0 
63.9359 9.23812 0 
73.9615 14.5 0 
61.1842 4.64782 0 
66.9861 12.2603 0 
61.6346 6.05437 0 
60.6908 3.34878 0 
70.3248 14 0 
60.1974 0 0 
64.6444 10.6121 0 
71.6239 14.5 0 
62.085 7.46091 0 
60.1974 2.04975 0 
75 15 0 
68.9358 13.8258 0 
72.9229 15 0 
59.7039 1.02487 0 
65.5009 12.0501 0 
62.4741 8.90807 0 
73.9615 15.5 0 
67.5467 13.6516 0 
59.2105 0 0 
60.2109 5.66149 0 
62.8633 10.3552 0 
60.6613 7.06804 0 
75 16 0 
59.1118 1.8996 0 
66.0615 13.4414 0 
69.4963 15.2171 0 
73.0785 16.1 0 
63.7198 11.7932 0 
59.2712 4.40082 0 
61.0276 8.51671 0 
58.6184 0.874731 0 
58.7778 3.10178 0 
68.1073 15.0429 0 
74.1171 16.6 0 
70.3248 16 0 
58.2237 0 0 
71.6239 16.5 0 
64.5763 13.2312 0 
61.4167 9.96386 0 
75 17 0 
66.6221 14.8327 0 
58.0263 1.74946 0 
59.2376 6.67516 0 
62.2346 11.583 0 
73.2341 17.2 0 
57.6316 0.874731 0 
59.6039 8.12383 0 
57.6923 2.95164 0 
58.2979 5.41449 0 
68.6678 16.4342 0 
74.1171 17.6 0 
65.1369 14.6226 0 
63.0911 13.0211 0 
57.2368 0 0 
59.9702 9.5725 0 
71.7795 17.6 0 
57.1382 1.8996 0 
75 18 0 
67.1826 16.2241 0 
69.4963 17.2171 0 
60.8215 11.2716 0 
57.3582 4.15382 0 
73.0785 18.1 0 
56.7434 1.02487 0 
63.6517 14.4124 0 
56.8041 3.10178 0 
57.8154 6.75019 0 
58.376 8.14151 0 
65.6974 16.0139 0 
73.9615 18.5 0 
61.6059 12.8109 0 
70.3248 18 0 
56.25 0 0 
71.6239 18.5 0 
56.25 2.04975 0 
58.7423 9.59018 0 
56.8757 5.48952 0 
75 19 0 
59.3749 10.8802 0 
67.7432 17.6154 0 
72.9229 19 0 
64.2122 15.8037 0 
62.1665 14.2022 0 
55.7566 1.02487 0 
60.1928 12.4994 0 
66.258 17.4052 0 
68.5717 18.3983 0 
73.9615 19.5 0 
55.7563 3.4912 0 
55.2632 0 0 
56.3932 6.82522 0 
56.9538 8.21654 0 
62.727 15.5935 0 
55.2022 2.43916 0 
57.5143 9.60785 0 
75 20 0 
64.7728 17.195 0 
60.6813 13.992 0 
58.147 10.8979 0 
73.0785 20.1 0 
58.7796 12.188 0 
55.3905 5.27933 0 
54.7088 1.41428 0 
66.8186 18.7965 0 
70.3248 20 0 
74.1171 20.6 0 
63.2876 16.9848 0 
61.2418 15.3833 0 
69.1323 19.7896 0 
54.2763 0 0 
71.6239 20.5 0 
59.2681 13.6806 0 
65.3334 18.5863 0 
75 21 0 
54.1544 2.82857 0 
55.4686 8.00635 0 
54.908 6.61503 0 
56.0291 9.39767 0 
73.2341 21.2 0 
53.7219 1.41428 0 
56.5897 10.789 0 
61.8024 16.7746 0 
57.2224 12.079 0 
63.8482 18.3761 0 
59.7566 15.1731 0 
67.3791 20.1878 0 
74.1171 21.6 0 
53.7886 4.61671 0 
53.2895 0 0 
71.7795 21.6 0 
57.7829 13.4704 0 
53.2285 2.43916 0 
65.8939 19.9776 0 
75 22 0 
62.363 18.1659 0 
60.3172 16.5644 0 
73.0785 22.1 0 
52.7961 1.02487 0 
53.9834 7.79616 0 
54.5439 9.18748 0 
64.4087 19.7674 0 
58.2714 14.9629 0 
70.3248 22 0 
53.4228 6.40485 0 
73.9615 22.5 0 
55.1045 10.5788 0 
69.1323 21.7896 0 
52.7351 3.7382 0 
52.3026 0 0 
67.9397 21.5791 0 
55.6651 11.9701 0 
71.6239 22.5 0 
52.3026 2.04975 0 
60.8778 17.9557 0 
62.9235 19.5573 0 
58.832 16.3542 0 
75 23 0 
66.4545 21.3689 0 
56.2257 13.3614 0 
72.9229 23 0 
51.8092 1.02487 0 
52.3693 5.52633 0 
64.9693 21.1588 0 
51.8092 3.34878 0 
56.7862 14.7527 0 
73.9615 23.5 0 
61.4383 19.3471 0 
59.3926 17.7456 0 
51.4145 1.8996 0 
51.3158 0 0 
53.0587 8.97729 0 
52.4982 7.58597 0 
53.6193 10.3686 0 
71.2128 23.5672 0 
63.4841 20.9486 0 
54.1799 11.7599 0 
57.3468 16.1441 0 
75 24 0 
50.9211 0.874731 0 
51.3158 4.64782 0 
54.7405 13.1512 0 
72.5118 24.0672 0 
69.5776 23.6331 0 
50.9211 3.19864 0 
68.385 23.4226 0 
59.9531 19.1369 0 
61.9989 20.7384 0 
55.301 14.5426 0 
57.9074 17.5354 0 
51.4447 6.70746 0 
67.1321 23.2061 0 
50.5263 1.74946 0 
73.5504 24.5672 0 
50.3289 0 0 
65.6469 22.9959 0 
55.8616 15.9339 0 
75 25 0 
51.5735 8.7671 0 
52.1341 10.1584 0 
49.9342 0.874731 0 
52.6947 11.5497 0 
60.5137 20.5282 0 
58.4679 18.9267 0 
72.1008 25.1344 0 
53.2553 12.941 0 
49.8355 3.34878 0 
56.4222 17.3252 0 
53.8158 14.3324 0 
70.4655 25.2003 0 
73.5504 25.5672 0 
49.4408 1.8996 0 
49.3421 0 0 
63.815 23.2124 0 
59.0285 20.318 0 
49.9595 6.49727 0 
54.3764 15.7237 0 
61.0743 21.9195 0 
56.9827 18.7165 0 
75 26 0 
68.8303 25.2661 0 
49.3989 5.10595 0 
67.5774 25.0496 0 
48.8487 1.02487 0 
62.3298 23.0022 0 
50.6489 9.94823 0 
66.3246 24.8331 0 
50.0883 8.55691 0 
51.2095 11.3395 0 
54.937 17.115 0 
51.7701 12.7309 0 
72.4347 26.4726 0 
59.5891 21.7093 0 
57.5433 20.1078 0 
48.3553 0 0 
52.3306 14.1222 0 
48.3553 2.04975 0 
70.9797 26.4993 0 
55.4975 18.5063 0 
73.8843 26.9053 0 
75 27 0 
52.8912 15.5135 0 
47.8618 1.02487 0 
69.3444 26.5651 0 
64.4926 25.0496 0 
58.1039 21.4991 0 
47.9186 3.80692 0 
53.4518 16.9048 0 
68.3162 26.5651 0 
60.1497 23.1006 0 
56.0581 19.8976 0 
67.0633 26.3486 0 
49.1637 9.73804 0 
49.7243 11.1294 0 
47.3684 0 0 
48.6031 8.34672 0 
50.2849 12.5207 0 
47.3684 2.04975 0 
61.4051 24.1834 0 
66.035 26.3486 0 
48.0426 6.9554 0 
54.0123 18.2961 0 
50.8454 13.912 0 
72.7686 27.8107 0 
73.8843 27.9053 0 
75 28 0 
47.482 5.56409 0 
71.3136 27.8374 0 
62.6606 25.2661 0 
58.6645 22.8904 0 
51.406 15.3033 0 
56.6187 21.2889 0 
46.875 1.02487 0 
46.9318 3.80692 0 
69.8586 27.8642 0 
54.5729 19.6874 0 
51.9666 16.6946 0 
68.8303 27.8642 0 
46.3816 0 0 
64.203 26.5651 0 
46.3816 2.04975 0 
67.802 27.8642 0 
57.1793 22.6803 0 
52.5271 18.0859 0 
48.2391 10.9192 0 
59.6464 24.5 0 
47.6785 9.52785 0 
48.7997 12.3105 0 
72.856 28.9053 0 
75 29 0 
73.9717 29 0 
47.1179 8.13653 0 
66.7737 27.8642 0 
49.3602 13.7018 0 
71.8278 28.9053 0 
45.8882 1.02487 0 
60.9019 25.5828 0 
46.5574 6.74521 0 
49.9208 15.0931 0 
63.0719 26.7325 0 
70.3727 28.9321 0 
53.0877 19.4772 0 
65.7455 27.8642 0 
69.3444 28.9321 0 
62.1465 26.5651 0 
50.4814 16.4844 0 
58.1612 24.2899 0 
45.3947 0 0 
45.7749 5.05301 0 
45.3947 2.04975 0 
68.3162 28.9321 0 
54.7594 21.7738 0 
51.4788 18.4418 0 
64.6143 28.0315 0 
67.2879 28.9321 0 
45.2247 3.29583 0 
75 30 0 
73.9717 30 0 
72.9434 30 0 
44.9013 1.02487 0 
71.9152 30 0 
46.7539 10.709 0 
47.3145 12.1003 0 
66.2596 28.9321 0 
46.1933 9.31766 0 
70.8869 30 0 
47.875 13.4916 0 
52.0394 19.8331 0 
59.1432 25.8994 0 
55.3199 23.1651 0 
45.6327 7.92634 0 
69.8586 30 0 
48.4356 14.8829 0 
63.4832 28.1989 0 
65.2313 28.9321 0 
44.4079 0 0 
60.3877 26.8818 0 
53.2742 21.5636 0 
68.8303 30 0 
44.4079 2.04975 0 
62.5578 28.0315 0 
48.9962 16.2742 0 
56.4771 24.5037 0 
44.8502 6.23413 0 
67.802 30 0 
61.6323 27.8642 0 
44.2378 3.29583 0 
49.9936 18.2316 0 
64.1002 29.0994 0 
43.9145 1.02487 0 
66.7737 30 0 
59.3793 26.9231 0 
44.0678 4.54192 0 
50.991 20.1889 0 
60.6239 27.9055 0 
65.7455 30 0 
63.0719 29.0994 0 
57.4591 26.1133 0 
45.8292 11.8901 0 
45.2687 10.4988 0 
46.3898 13.2814 0 
43.4211 0 0 
52.2258 21.9194 0 
44.7081 9.10747 0 
43.4211 2.04975 0 
46.9504 14.6727 0 
62.1465 28.9321 0 
58.4385 27.0222 0 
64.7172 30 0 
44.1475 7.71616 0 
47.511 16.0641 0 
59.6155 27.9468 0 
43.251 3.29583 0 
53.4606 23.65 0 
63.6889 30 0 
42.9276 1.02487 0 
61.1182 28.9321 0 
48.0715 17.4554 0 
43.365 6.02395 0 
54.6178 24.9885 0 
49.069 19.4127 0 
62.6606 30 0 
58.6747 28.0459 0 
50.8222 21.6733 0 
42.4342 0 0 
60.1098 28.9734 0 
55.775 26.3271 0 
42.4342 2.04975 0 
52.057 23.4039 0 
56.7544 27.236 0 
44.344 11.6799 0 
49.6295 20.804 0 
44.9046 13.0712 0 
61.6323 30 0 
43.7834 10.2886 0 
45.4652 14.4625 0 
43.2228 8.89729 0 
57.7339 28.1449 0 
46.0258 15.8539 0 
59.1213 28.9734 0 
41.9408 1.02487 0 
42.6622 7.50598 0 
46.5863 17.2452 0 
60.604 30 0 
55.9067 27.3302 0 
52.3471 24.5393 0 
53.1846 25.3346 0 
47.1469 18.6365 0 
41.7707 4.59487 0 
56.8861 28.2391 0 
41.4474 0 0 
58.1804 29.0725 0 
50.6533 23.1578 0 
41.3487 1.8996 0 
59.6155 30 0 
54.3417 26.6731 0 
55.1468 27.4186 0 
47.7075 20.0278 0 
49.4607 22.2884 0 
57.2873 29.0725 0 
56.0384 28.3333 0 
43.4194 12.861 0 
42.8588 11.4697 0 
43.98 14.2524 0 
40.8553 0.874731 0 
58.627 30 0 
50.9434 24.2932 0 
40.9539 3.34878 0 
42.2982 10.0784 0 
44.5406 15.6437 0 
48.2681 21.4191 0 
41.7376 8.68711 0 
45.1011 17.035 0 
41.068 6.0769 0 
40.4605 0 0 
56.4396 29.1666 0 
55.2785 28.4216 0 
41.177 7.2958 0 
57.7339 30 0 
45.6617 18.4263 0 
40.2632 1.74946 0 
51.2336 25.4286 0 
52.071 26.2239 0 
52.9085 27.0192 0 
46.2223 19.8176 0 
49.2716 23.6764 0 
53.7135 27.7646 0 
55.6371 29.1666 0 
56.8408 30 0 
54.5186 28.51 0 
39.8684 0.874731 0 
[...]
POINT_DATA 2394
SCALARS cohesion float 1
LOOKUP_TABLE default
24.118
24.0889
25.3284
25.7989
24.2251
28.1681
26.8552
28.528
25.0225
27.7398
29.4542
28.3433
28.0844
25.6191
29.1642
29.5898
31.8531
32.186
29.9603
26.774
29.9194
31.29
30.1796
34.2926
35.1783
33.7297
27.8906
37.6068
37.2808
37.9804
33.8485
32.3354
34.071
34.8204
29.2461
31.1902
39.6747
30.5776
35.0689
36.1873
34.9067
28.8012
38.5425
29.5789
26.2785
39.3687
40.527
33.2697
26.363
35.4103
27.2466
29.7615
28.3327
41.1428
40.8272
27.5791
30.6544
30.8111
26.4805
28.8616
34.7529
29.6865
34.2371
29.3347
29.365
41.0494
30.8193
29.4889
33.663
40.7528
29.7453
31.0904
24.903
29.7127
28.6891
33.8653
33.6786
28.4578
27.2038
39.3148
33.6631
31.9602
42.2426
41.5124
25.9483
27.6069
49.1511
38.1264
29.787
48.5544
32.0444
28.1945
30.1138
34.7445
42.2496
44.4499
26.522
26.136
45.6402
45.3396
35.0298
37.0712
32.512
43.9552
30.6002
34.0816
28.496
35.8314
29.1383
43.6705
25.3808
30.2409
27.6776
32.978
26.9352
27.1135
27.3119
26.9526
33.3172
29.9617
33.0695
46.7053
36.0474
43.4212
24.9455
24.8024
30.854
32.2687
30.6481
31.0453
31.2239
26.3786
32.4609
25.6423
47.6756
31.9519
28.6042
27.1256
24.4984
32.5577
31.9348
35.0209
24.6547
28.8812
30.1965
30.8051
24.2993
45.3586
37.9604
30.2386
24.5227
41.0155
33.3524
22.9715
25.59
24.5825
23.2079
34.9228
37.4013
23.8247
35.5549
27.1872
38.338
45.8579
23.8491
24.4714
29.1955
38.4659
30.5816
24.7168
25.06
37.0362
40.9098
25.1522
39.0629
24.7578
27.7286
26.5017
29.0489
24.1223
40.0454
41.6861
25.931
24.874
36.496
40.0663
36.6844
29.3695
34.7773
26.8003
44.5011
28.305
25.7646
29.4252
29.4639
40.0244
31.7647
26.7867
38.2224
31.1666
28.0653
40.3809
35.2635
25.6242
50.9349
33.8745
33.8517
26.1597
46.6924
27.4242
34.2172
28.4598
43.8642
31.6831
41.0631
24.6139
37.1707
34.7873
40.5804
23.7041
57.5755
27.0939
26.6626
39.5615
26.2175
22.3703
39.6791
42.5812
29.3849
28.9674
23.3255
34.2263
43.1515
22.0655
39.5694
27.5193
33.3423
38.872
21.6434
26.8874
42.0787
39.9948
56.6207
45.4629
39.7851
32.5469
25.423
32.4941
30.3446
24.9022
36.9327
30.3625
37.7074
31.7145
45.1116
39.0646
32.069
27.9111
26.0404
35.4181
42.3475
35.0968
31.0562
29.2054
34.9343
41.8846
29.5007
38.4515
30.5119
30.4809
57.7679
34.3848
26.5138
43.314
43.991
37.566
33.6334
32.9783
38.7034
32.8654
28.6374
22.9448
35.418
36.8597
31.4103
32.8078
44.5838
41.4173
25.1087
31.8824
30.2076
26.4211
42.1674
31.5285
38.0531
54.4936
35.2313
35.6281
29.6348
22.6973
43.3993
34.3236
32.6325
32.3294
31.7375
42.5942
36.0254
29.577
39.6251
25.8311
33.7353
24.8404
40.0564
32.7114
34.9639
33.8831
40.4541
25.1561
41.2646
30.2517
49.9134
36.0773
40.2166
42.3971
48.9033
33.3779
38.4098
28.2871
39.9544
42.9757
23.2724
33.8493
35.8785
35.7067
24.2281
32.3388
38.3297
39.67
43.1342
39.7804
18.7183
38.9697
30.16
38.3971
38.8329
41.5422
23.8629
45.6229
37.7831
52.467
36.5261
40.1232
35.84
35.4479
29.5008
21.7952
34.7739
39.8139
34.4668
32.6411
30.4426
29.9065
32.8526
45.079
38.1303
28.0258
37.2535
32.8207
34.562
34.1183
34.6817
38.1045
42.0456
37.1987
22.428
56.1944
23.0336
42.5599
36.3324
27.6227
39.87
30.9361
28.3958
29.3148
29.7972
17.9615
27.2988
56.6182
35.6615
29.2586
37.7335
30.6818
28.0113
26.3552
34.4047
35.7293
26.8009
38.1637
36.1897
20.7456
26.5756
34.3119
40.142
41.1364
50.9461
37.2408
57.0898
20.3953
19.8474
20.1515
22.8277
27.0124
35.5522
20.3535
31.827
56.2428
29.2561
28.2758
33.2444
20.0473
36.6445
27.2921
20.1346
37.6622
33.9398
47.9437
40.0191
20.6128
21.9916
20.6156
39.4125
39.6089
29.6412
21.3755
29.9274
16.3862
16.018
14.8281
32.5254
14.7679
42.0046
59.4077
22.2736
37.7571
14.034
41.6847
32.5137
56.1205
31.8087
25.7308
14.6388
28.0745
30.9485
22.8085
41.832
33.8009
32.7018
14.4275
22.172
30.2258
32.4688
50.9741
29.9617
15.1758
29.5879
27.6807
39.4204
21.7672
33.51
15.0935
31.9431
24.9529
29.8814
30.2388
16.0333
22.1152
51.1658
60.2449
45.8276
50.0582
43.3717
38.1388
36.4885
22.4348
29.7795
23.8284
30.8924
16.6098
30.0581
31.6207
30.3002
30.2379
28.4175
18.0065
34.9549
23.6068
35.305
30.676
47.5904
34.2115
17.4467
28.8942
37.811
44.097
22.7404
42.6707
20.9269
26.6313
27.0942
61.2044
29.4258
61.9628
17.4732
49.489
32.8764
34.9999
28.5485
31.47
22.1948
36.203
33.6614
33.8383
17.4675
26.3433
38.0563
42.8302
35.4219
29.7654
27.2076
45.7086
21.1168
27.1508
23.8021
17.9071
31.3658
24.505
29.3028
37.4481
20.3843
26.191
70.7659
58.4963
37.3858
38.9443
17.8398
32.3879
31.1293
51.1873
32.9579
32.3277
32.7667
33.4617
32.5378
46.154
19.65
25.4213
34.0044
18.2756
34.681
25.45
37.819
34.0456
24.5598
28.4603
23.8755
23.3919
19.2641
18.3947
25.1618
39.8963
28.5085
33.1967
29.5025
76.9644
42.2431
53.6031
24.0738
34.5602
18.7412
18.7916
48.2491
35.697
23.1136
50.736
34.0526
24.4086
29.4157
34.1133
30.9884
30.7394
23.5462
22.6322
35.0281
33.4626
18.8694
19.0661
34.9465
38.3871
22.5108
28.5984
30.5817
35.9441
19.5075
24.3752
24.9973
19.0415
22.7057
48.5733
23.7359
32.6176
46.132
73.4665
35.6515
19.6298
19.2202
48.8305
34.6626
22.8278
24.8614
22.2423
27.1068
46.4425
33.5056
34.6549
38.3438
20.0582
28.7745
35.2102
19.6247
27.7573
28.801
37.7958
21.9538
24.9296
32.4897
32.1083
22.8617
20.5232
52.7756
23.5087
20.2232
23.2109
35.6621
25.6348
34.0555
21.8849
25.2591
25.6813
21.1317
20.7684
32.747
47.9114
36.0506
21.8884
69.1198
35.4748
43.0765
21.4461
32.2309
21.3307
33.7214
42.7176
29.1248
27.15
22.0646
32.2767
26.434
34.4307
22.2297
54.2881
36.2708
25.4516
25.673
30.4911
22.0371
20.9575
27.4144
28.0752
33.3148
27.1205
22.8372
22.5552
22.5631
25.2332
32.6779
27.2271
23.3806
28.1284
25.7562
31.8477
23.2131
27.3631
23.3552
34.0468
36.87
49.9026
36.8061
23.8388
60.3465
23.7702
31.2726
52.959
23.7026
23.9463
42.8131
29.4862
31.8301
37.0195
24.5737
30.4435
29.036
24.2353
28.4416
25.1381
28.7874
24.502
20.7418
27.0268
26.3422
24.9905
24.9032
38.7115
24.9601
28.9871
25.2584
29.584
31.7178
29.5994
32.9701
25.5608
28.9085
29.6098
25.6986
25.4425
26.5408
25.4887
33.1289
26.0578
27.8825
25.6956
27.033
48.5071
25.8801
25.8747
23.825
26.5614
26.1218
27.6208
26.8176
36.9898
38.5809
26.1933
32.7433
28.6384
51.0779
30.1525
30.2911
26.2883
28.0284
26.9235
26.2831
53.6444
43.3588
29.2227
26.5064
31.7002
30.0673
26.6363
27.1773
26.4846
20.6321
26.8651
39.1895
26.8255
28.2735
32.2337
26.9326
27.559
29.501
30.7724
27.0656
25.5239
29.0705
34.6732
27.1911
27.814
28.2561
26.9733
27.347
26.9073
27.3964
31.8875
28.1135
29.7413
33.3183
27.1264
27.175
27.5235
49.2432
32.1752
23.9314
28.2938
27.6321
27.4102
30.1133
27.3667
27.7755
27.2459
27.7764
28.5391
28.8659
27.8963
29.3908
27.854
28.6652
27.9643
27.0542
27.3754
27.9584
27.8116
28.1124
28.7471
27.6926
28.0805
28.8795
38.4604
28.2161
27.9666
39.2005
28.7775
28.4459
27.4668
28.9631
52.8657
28.1997
29.8376
46.3042
28.0729
28.3879
44.603
27.8842
27.6535
30.4314
28.2923
29.1313
28.4796
33.8771
31.5529
28.6858
29.1903
28.4013
29.0423
28.2137
28.2598
28.6323
28.0499
30.0847
29.3143
39.8601
28.4447
28.37
29.8839
28.7105
27.8122
20.8218
22.5292
28.3064
29.3585
28.5142
36.2613
28.421
28.8317
27.5809
28.3598
29.4244
28.5698
47.8194
28.3975
28.8684
24.4535
29.4274
28.6291
28.1454
30.3161
28.9508
29.6879
28.6664
29.4588
34.3871
28.6905
29.7405
28.1793
28.98
27.6472
29.4801
30.0098
28.8625
28.7713
28.7409
28.1092
29.5485
28.9209
30.128
30.2968
28.8141
29.5904
33.3158
27.8249
30.1876
28.9751
30.0428
27.6249
27.2952
28.7569
29.6435
39.3851
27.971
30.0903
30.4012
29.0343
28.4806
30.4377
28.7127
29.6742
30.4395
28.9065
28.9681
30.1811
28.0492
25.9978
29.7077
30.5084
30.5141
28.7976
48.1704
27.6116
30.2458
30.3886
29.0191
27.9196
30.4738
29.6889
31.3761
55.3797
30.5832
29.738
38.9023
39.3135
28.8597
30.5091
29.0886
30.5252
29.8033
30.3975
28.7449
30.6223
52.2919
34.0862
27.6665
29.1481
30.5674
30.5305
27.8767
29.8492
27.2102
28.6353
24.0675
30.4841
30.6357
43.6761
29.044
29.9036
30.6792
28.0048
30.4548
33.3853
30.5193
27.4814
20.2987
28.7661
29.324
35.637
20.3533
29.0667
30.7428
30.4651
29.9411
28.8367
27.8481
30.609
28.8848
30.6059
30.7312
29.211
28.1312
30.037
30.6975
29.6169
30.6321
32.8509
27.944
30.624
28.6657
30.725
27.4582
30.5668
29.2628
30.0874
27.938
30.6438
30.6728
28.5056
30.5099
30.6938
29.0692
27.4607
29.4212
30.1679
30.5918
31.9994
31.4682
30.6597
30.0119
28.5973
30.6692
53.6638
41.3006
29.0899
31.0642
30.2113
27.6987
27.3599
38.1815
36.0113
30.671
30.5785
30.6536
28.7479
28.3859
41.2159
29.2719
50.2
30.3214
30.5288
32.2055
30.623
28.9179
30.5255
28.6233
31.6708
29.3706
30.5056
29.5195
43.5205
30.3866
30.557
34.0927
29.1825
34.396
19.9073
30.7747
30.3945
27.6317
20.1645
27.3326
28.5578
23.9963
29.256
30.5394
30.4807
27.619
30.4667
29.969
30.3403
34.1751
32.4037
27.4725
31.7145
36.915
28.5388
29.4857
30.5192
52.1495
30.3513
30.2704
31.6162
25.4531
30.2638
29.9181
30.7241
28.5752
29.6178
27.44
30.5336
25.7552
30.2218
38.6831
31.1271
30.1661
27.6795
44.5494
29.7909
30.9065
42.6716
41.9802
29.8815
28.8748
30.4122
30.1552
32.8295
30.2423
41.8052
29.0442
31.1543
30.0251
30.3772
29.1869
29.6628
30.1649
32.3244
29.9187
39.1664
33.8903
38.2865
27.8964
22.7758
19.3325
30.5249
31.4466
48.4159
27.563
19.9443
28.8568
29.8189
24.8114
30.2529
30.3203
30.1056
39.985
30.1966
29.3693
30.2986
32.3305
28.339
31.7746
30.1252
30.1649
30.7984
43.1213
30.4568
29.7503
22.2917
28.4433
28.9226
48.9714
31.45
28.7781
22.4906
33.2118
26.5098
30.411
31.4579
31.0897
30.094
27.748
41.4532
30.4713
30.4002
39.4946
30.7254
49.6525
30.0128
32.1621
34.4652
32.3981
30.8291
33.5352
29.4044
31.5741
30.0295
24.793
30.5185
18.9422
40.7615
30.7203
27.9897
24.1767
22.8897
44.8389
35.9762
29.8174
26.0515
32.4662
31.6042
28.7403
30.4515
29.4096
30.3538
30.5345
27.79
30.9307
30.9502
18.0659
37.0683
31.8846
30.2437
26.8363
32.8655
32.4385
49.0603
22.882
30.8078
30.8154
24.7077
37.1577
31.7639
30.6378
36.7374
31.0078
30.6519
37.8901
29.4587
25.1605
32.8744
35.396
31.0456
32.193
46.1297
28.0612
29.7107
33.0485
28.6286
30.9457
30.9006
31.6859
22.8088
27.376
30.0856
35.5745
31.8508
31.787
27.483
33.9654
50.0974
34.6474
29.1693
31.775
22.9356
21.7627
34.3375
30.2378
25.2772
30.3374
42.4193
31.9183
29.4143
31.2579
30.185
21.0283
31.1562
33.7964
29.4876
30.26
28.2662
46.7906
23.7732
33.244
33.98
29.8691
23.9615
18.3061
31.1408
27.1444
36.3131
34.9336
30.6216
32.3135
49.5942
36.2334
27.9998
28.1529
34.4947
31.0233
25.927
24.3299
36.0768
31.0066
24.565
32.7492
25.7919
26.2437
37.79
24.3559
32.0789
28.7691
47.4479
49.8149
28.9664
32.8634
33.6654
26.2655
30.6063
27.7651
32.9996
30.275
28.7166
28.3493
18.7386
26.2491
37.3532
24.9752
34.8531
27.8615
48.7596
36.7401
26.275
36.9916
31.0366
32.5825
31.0594
22.071
28.1313
29.5994
32.2279
26.8712
25.7822
30.7852
33.7381
47.1913
39.1252
31.0534
25.7591
34.1504
27.9574
33.575
36.9911
29.9677
41.9649
27.1236
42.1326
34.1984
23.7613
20.4538
31.4328
38.4889
28.8535
30.5232
46.9154
40.528
36.4524
26.0599
25.5264
29.7025
30.0816
26.2534
38.0356
33.8442
19.8589
31.2923
39.6479
26.3099
33.6237
21.8408
25.905
33.0427
46.2057
21.129
40.9174
24.6625
27.8314
27.6628
30.6162
24.0492
29.7831
26.3706
41.6944
30.3134
26.2664
27.5654
38.9712
33.2149
24.5892
25.1265
45.3155
36.7391
34.3325
51.3441
32.7914
58.8928
35.6386
27.1768
42.679
30.605
30.5368
35.239
27.4498
27.384
21.0063
26.8085
40.1552
25.8418
41.8436
31.7415
29.245
44.6565
26.2348
30.0395
40.0476
38.2199
23.914
43.1741
32.2298
28.7114
27.4353
23.4565
29.5844
38.7474
26.9612
43.5611
37.7443
27.0262
20.8025
28.0477
43.0218
24.7512
35.0507
27.4657
31.2527
41.866
20.4959
34.0769
43.0119
34.4287
36.5096
39.4777
43.2959
28.1712
26.1107
35.9473
29.5872
55.7975
22.4853
24.6615
41.6875
29.0416
32.769
43.391
40.4224
30.7903
27.8546
43.8256
27.4365
30.4999
29.1906
40.8155
26.5926
28.1207
23.1978
41.5696
27.8503
37.0255
43.4659
38.2312
30.2614
40.9095
29.7193
34.179
32.6038
28.712
34.4159
29.3079
42.8282
29.7534
20.2976
42.4056
39.8115
38.8424
28.7165
27.3264
35.0759
43.3383
25.3657
28.5358
41.3727
22.4218
31.3835
29.336
27.327
41.8969
24.2103
26.1668
41.0227
26.3194
24.5847
43.6787
20.5362
28.5657
31.2271
36.7331
43.8829
36.3907
28.8172
41.9134
27.2755
31.579
29.5408
41.6512
23.5072
27.1956
30.8919
30.9865
25.8589
41.9604
32.5951
28.708
38.4437
39.242
34.2272
33.1979
28.6129
28.5633
33.3467
31.2334
42.383
42.5989
30.3049
28.1599
22.1959
40.5875
28.0328
39.2973
30.7041
42.6298
34.7099
31.4575
37.4965
29.5187
40.4514
29.5593
27.5357
40.3442
27.2701
30.7646
20.4534
27.1979
35.9156
26.2909
29.0838
31.742
30.2575
28.1743
25.0317
22.0761
30.6962
29.9597
30.8808
39.257
27.6708
37.9335
29.2798
30.7414
28.5715
27.4573
38.2219
28.9231
23.4244
35.9679
31.8904
47.5
34.4922
34.6241
29.7126
26.4654
24.3702
30.7664
28.4347
41.2121
28.0401
30.8693
31.813
30.3958
27.3985
29.2212
23.3804
28.3999
26.2938
37.9349
32.0114
30.0279
42.8145
30.9304
39.4772
28.021
31.0709
27.3214
32.1706
29.7103
37.6359
28.2766
35.4989
20.1059
32.1786
29.3576
20.6295
32.9413
31.336
28.0683
40.095
32.4981
28.6342
37.2278
27.3824
28.056
27.9435
29.74
27.819
37.134
29.1976
32.3061
34.7172
24.4651
29.491
32.164
31.3418
31.5004
23.2024
36.1089
29.1359
35.8338
31.7096
27.365
28.146
29.0721
32.4911
30.4418
29.5656
41.0938
32.1341
25.1663
28.5409
29.7081
31.6742
28.4828
24.725
32.781
30.1715
39.1798
26.9575
28.3679
29.2477
32.608
29.6669
40.016
38.2957
29.7918
31.3155
31.7382
25.1743
32.9591
27.8189
20.6006
28.0451
39.6745
29.4753
36.6271
38.1018
29.8027
33.6766
31.8354
29.9274
31.3608
33.404
36.6128
32.949
43.3151
29.1801
22.3358
32.0401
25.1014
30.0693
30.8079
32.9513
33.4689
30.2181
24.2326
28.3612
33.138
29.1191
38.531
24.3956
32.2952
30.008
32.2554
33.432
31.2035
33.7569
30.4113
24.8928
33.2418
40.2132
29.9983
32.468
37.9845
39.0239
29.3889
38.6563
26.5066
27.8754
26.4751
26.3115
33.7016
34.0021
25.5578
29.094
33.4362
34.3523
22.6922
32.6618
33.5127
30.4995
32.2656
35.8241
30.7965
45.8413
31.2714
34.2999
33.6927
32.8798
34.4461
22.7449
37.5663
25.7584
34.5954
39.1171
29.5562
38.5832
33.9563
33.0904
28.475
41.2476
33.729
34.3525
32.1536
30.9871
31.802
32.1142
34.9021
22.1995
33.3038
33.3192
34.5897
34.5168
24.0907
31.9299
33.4674
35.2207
34.8612
31.3149
34.6067
45.3872
25.6881
23.5916
33.9476
25.2887
28.1833
33.6917
37.7808
33.142
27.4324
28.4075
35.4497
35.0614
34.838
31.3531
33.9393
35.6761
31.6889
44.9273
35.105
23.0728
35.7881
34.1518
35.584
39.68
25.4798
36.4275
25.9522
34.4055
35.9924
35.3658
36.1533
34.3845
40.3479
27.1953
36.2804
24.9976
36.2842
35.5565
34.6282
33.5461
36.6254
26.131
22.8702
36.4083
31.1792
35.8268
34.8872
30.0857
32.6849
36.9633
26.2893
36.2068
26.6357
33.0625
35.1236
37.2555
27.4581
35.6838
36.5394
28.6381
34.2823
37.5854
34.3797
30.5454
29.2357
35.3902
27.6127
37.0606
40.2929
23.5307
36.3293
34.7143
27.1572
37.5189
35.637
33.685
38.1371
37.4236
32.9339
38.8551
35.9632
33.715
35.9544
27.7898
27.9273
38.6135
36.9112
24.3218
25.0829
37.7085
31.5601
34.3684
36.3304
31.9701
38.8845
25.6191
35.5773
26.6007
25.4019
38.1781
39.2859
36.7082
26.2567
32.3916
38.9056
30.2857
36.6677
27.6476
39.3615
37.0685
26.9406
29.4963
39.9434
34.9215
25.7911
36.576
25.7577
26.7494
39.3264
28.0335
36.3973
32.2624
37.4443
28.4447
40.5757
43.2581
27.2921
23.8624
39.594
32.2709
30.7966
34.4479
38.9315
30.9049
37.9095
26.3166
40.9911
35.1271
27.0001
29.9699
40.0091
37.1478
24.8831
38.2361
36.6051
27.2529
41.5309
22.9546
37.9402
40.5411
26.0835
30.5358
30.0924
38.6596
28.0207
35.5452
37.3845
40.9141
31.9307
34.5324
24.8239
38.078
38.9081
27.2559
40.414
31.8666
31.9879
41.6166
31.7309
25.2163
29.8827
25.9514
39.4032
24.9974
39.1771
31.9832
30.0762
35.438
41.5036
27.1711
37.4421
24.6486
36.4731
33.1387
41.9715
27.4705
39.3726
24.7527
28.4012
21.8874
33.6877
41.7108
30.3568
41.8337
27.8023
36.5043
31.7829
28.7103
39.6272
41.0397
28.4142
31.1726
29.4193
27.4536
41.8737
27.0474
34.7746
30.9017
34.4038
34.9494
42.4729
29.511
39.7568
31.9539
39.4065
34.88
35.5716
30.8733
23.4183
39.0192
42.203
27.6933
35.0492
30.9368
39.6645
27.1684
38.6571
24.6511
25.0607
24.3021
25.8993
40.024
42.2562
31.6684
29.5741
27.6008
39.543
29.2637
26.6555
29.7806
38.3418
34.7187
29.5501
42.0459
35.9679
39.1703
40.7579
31.0002
23.6287
31.8172
35.3115
35.3213
29.9161
27.6494
33.331
29.2384
42.0795
39.9176
25.7336
41.4967
30.0452
27.8218
34.6959
24.3997
39.1554
28.4566
37.8865
31.3788
35.5439
24.2308
30.072
40.532
40.8634
29.116
39.0043
27.2527
34.9454
35.375
42.5259
30.9443
28.1729
30.5184
39.8649
24.5402
40.4538
38.8825
28.3975
29.8677
33.9338
28.1332
27.8276
45.1505
42.621
33.2478
38.9073
27.5364
40.2002
24.4523
38.7514
40.1834
30.7328
38.4687
35.105
25.5787
33.4197
24.8697
37.7521
26.4051
24.2702
27.5985
39.623
23.5863
34.3092
38.0925
32.9164
28.5877
27.1631
30.7177
35.4519
33.0614
26.0537
33.0705
39.145
30.0144
30.1414
37.5365
31.6374
27.4231
39.2262
24.285
23.0249
35.034
31.4509
23.8877
32.9227
39.8886
38.8843
36.9964
35.6675
29.422
22.7909
34.0897
32.1726
45.4256
25.1937
34.9859
32.6898
29.2125
38.2964
37.2729
28.3385
23.1878
36.4452
27.2809
30.9037
27.7205
25.6231
37.8896
24.0762
33.6163
36.9102
36.1012
36.364
30.2694
21.0708
27.9579
22.5017
35.7919
32.7946
35.8304
37.5189
31.3746
32.3775
36.8594
28.8443
30.273
26.2195
25.3261
36.8722
29.1186
24.1263
43.8594
29.832
35.7327
38.011
37.1049
29.248
32.4019
33.7929
20.9925
23.7499
32.1557
32.6302
28.5492
35.2123
35.7915
28.9759
27.7294
21.0576
37.2668
41.5377
31.1481
26.3745
25.2822
37.076
21.0715
23.2726
35.7744
28.0189
25.592
33.0961
34.5041
45.7533
32.542
29.5977
37.0276
35.8897
31.4497
41.8019
37.1092
34.2617
28.2146
29.9084
34.6202
26.9448
36.3162
30.4858
29.0869
18.2848
41.5671
30.319
26.8377
32.5609
34.1731
37.0149
27.0408
37.7192
23.0877
20.1562
24.911
37.2761
34.7316
28.343
22.4864
38.6055
28.1088
34.2911
32.6057
29.0486
32.165
28.0205
35.2722
30.1845
41.0071
34.437
39.2681
33.9043
34.235
37.749
47.8731
26.5489
31.8165
40.8569
38.0578
30.0204
33.7487
29.5717
28.909
36.5582
23.8626
18.0059
37.3812
37.5776
24.2133
35.4959
37.0151
29.5519
31.939
36.4789
40.5869
29.9547
38.372
18.7559
29.661
39.8625
33.9378
28.9335
32.0043
22.3646
45.6364
39.0551
38.4791
27.4492
42.0015
35.065
43.8353
42.0341
39.2189
25.557
37.7117
35.5448
38.6352
38.1183
34.1729
37.0512
37.9013
40.2157
33.7835
43.4839
18.3973
40.5311
31.0024
39.2134
40.4856
29.8229
33.3714
48.061
33.0181
37.1094
40.6529
43.4356
45.1696
36.6414
41.9223
21.5908
37.2625
20.5066
40.7841
34.8103
40.0195
41.4195
47.4405
43.1886
41.6533
29.7294
35.3834
18.4541
43.4807
34.6471
18.8744
35.191
27.1725
32.6129
45.9273
41.6451
44.6959
39.2344
44.6132
49.7171
46.1526
25.2919
38.9377
40.9853
42.2216
36.6838
25.2236
44.1212
47.123
45.9935
51.4016
19.7576
30.3208
20.1309
43.1739
42.677
42.3128
47.8433
19.2182
52.9484
47.3289
36.856
42.0063
23.1971
28.071
34.2348
35.0238
19.7242
22.8248
48.9805
54.3978
48.705
20.7468
26.6226
36.8509
20.1244
49.929
21.6843
55.6554
49.8635
45.3772
20.6727
40.9057
41.1891
27.9551
56.6073
33.2336
20.7909
52.5224
51.1067
42.1425
26.8958
21.8418
44.6707
43.786
51.6624
57.4653
33.8527
53.4176
37.0017
43
31.8847
44.8788
51.7725
53.2998
57.9238
27.311
41.2279
52.521
58.0201
51.9877
39.4615
34.6174
31.8082
57.5847
51.9668
51.1906
27.3117
52.418
37.264
55.7949
49.4666
51.8856
55.4194
50.3853
SCALARS friction float 1
LOOKUP_TABLE default
9.37743
9.38608
9.24931
9.11089
9.20273
9.64202
8.87643
9.60243
9.0513
9.88106
9.16412
8.62462
9.76343
8.65499
10.8696
9.86759
8.44826
8.12643
11.0356
8.59036
9.95508
9.60512
10.2272
7.83044
7.4508
8.41921
8.55374
7.40852
7.56161
7.24482
8.23277
9.83665
7.92297
7.07752
8.78516
7.57508
7.6153
7.56591
6.71232
8.35991
8.05636
8.63763
6.28913
8.94083
10.0575
7.43012
7.73745
8.03883
9.91291
8.4427
9.90249
9.30598
9.37158
7.90074
7.79584
10.1281
10.0811
8.36507
10.633
9.19225
9.11616
9.1699
7.3055
9.77512
9.46177
8.34032
9.42137
9.70974
9.82382
8.96129
9.38276
9.86828
12.8339
10.479
10.5217
7.82935
8.41893
9.52783
10.3033
9.36064
8.26033
10.7078
8.99246
7.46575
12.604
11.0392
7.0436
9.84794
10.5071
7.4653
9.98104
10.7344
11.6408
8.11239
10.119
7.8619
11.6701
13.0497
8.33344
8.0445
10.6721
8.51587
9.91085
8.54595
11.4762
8.94548
12.254
8.01917
8.54664
10.3774
12.038
10.5713
12.086
11.4409
9.74807
7.89198
7.85531
12.6511
9.45237
7.13539
12.569
8.63012
8.13377
10.5601
9.26077
12.2519
10.3908
6.94138
10.5867
11.8481