# vtk DataFile Version 3.0
File generated from DClib
ASCII

DATASET UNSTRUCTURED_GRID
POINTS 2394 float
75 0 0 
74.0132 0 0 
75 1 0 
74.0132 1 0 
73.0263 0 0 
75 2 0 
72.9355 1.08748 0 
73.9223 2.08748 0 
72.0395 0 0 
75 3 0 
72.8446 2.17496 0 
71.9486 1.08748 0 
73.9223 3.08748 0 
71.0526 0 0 
75 4 0 
72.8838 3.58748 0 
71.5238 2.50694 0 
70.6278 1.41947 0 
73.9615 4.5 0 
70.0658 0 0 
75 5 0 
71.563 3.91947 0 
72.9229 5 0 
69.641 1.41947 0 
70.203 2.83893 0 
73.9615 5.5 0 
69.0789 0 0 
75 6 0 
69.1476 2.44434 0 
72.9229 6 0 
71.6239 5.5 0 
70.2639 4.41947 0 
68.5855 1.02487 0 
73.9615 6.5 0 
68.0921 0 0 
75 7 0 
68.0921 2.04975 0 
72.9229 7 0 
71.6239 6.5 0 
68.6542 3.74338 0 
67.5987 1.02487 0 
73.9615 7.5 0 
70.3248 6 0 
67.1053 0 0 
75 8 0 
67.5987 3.34878 0 
67.1053 2.04975 0 
68.7151 5.32391 0 
73.0785 8.1 0 
66.6118 1.02487 0 
74.1171 8.6 0 
66.1184 0 0 
75 9 0 
66.6118 3.34878 0 
66.1184 2.04975 0 
71.6239 8.5 0 
67.1053 4.64782 0 
69.1755 7.15213 0 
70.3248 8 0 
73.2341 9.2 0 
65.625 1.02487 0 
74.1171 9.6 0 
67.5657 6.47604 0 
65.1316 0 0 
75 10 0 
65.1316 2.04975 0 
71.7795 9.6 0 
73.0785 10.1 0 
64.6382 1.02487 0 
65.1137 3.65591 0 
73.9615 10.5 0 
65.6071 4.95495 0 
68.0262 8.30425 0 
69.1755 9.15213 0 
64.1447 0 0 
66.0569 6.38442 0 
75 11 0 
71.6239 10.5 0 
70.3248 10 0 
64.1447 2.04975 0 
72.9229 11 0 
63.6513 1.02487 0 
64.1268 3.65591 0 
73.9615 11.5 0 
66.5173 8.21264 0 
63.1579 0 0 
75 12 0 
63.1579 2.04975 0 
64.1089 5.26208 0 
73.0785 12.1 0 
67.2259 9.58662 0 
68.3752 10.4345 0 
62.6645 1.02487 0 
64.5587 6.69155 0 
63.14 3.65591 0 
74.1171 12.6 0 
62.1711 0 0 
65.0085 8.12102 0 
70.3248 12 0 
71.6239 12.5 0 
62.1711 2.04975 0 
75 13 0 
65.717 9.495 0 
68.9358 11.8258 0 
62.6466 4.95495 0 
73.2341 13.2 0 
61.6776 1.02487 0 
63.0969 6.3615 0 
74.1171 13.6 0 
61.6776 3.34878 0 
61.1842 0 0 
66.4255 10.869 0 
63.5467 7.79097 0 
61.1842 2.04975 0 
71.7795 13.6 0 
75 14 0 
73.0785 14.1 0 
60.6908 1.02487 0 
63.9359 9.23812 0 
73.9615 14.5 0 
61.1842 4.64782 0 
66.9861 12.2603 0 
61.6346 6.05437 0 
60.6908 3.34878 0 
70.3248 14 0 
60.1974 0 0 
64.6444 10.6121 0 
71.6239 14.5 0 
62.085 7.46091 0 
60.1974 2.04975 0 
75 15 0 
68.9358 13.8258 0 
72.9229 15 0 
59.7039 1.02487 0 
65.5009 12.0501 0 
62.4741 8.90807 0 
73.9615 15.5 0 
67.5467 13.6516 0 
59.2105 0 0 
60.2109 5.66149 0 
62.8633 10.3552 0 
60.6613 7.06804 0 
75 16 0 
59.1118 1.8996 0 
66.0615 13.4414 0 
69.4963 15.2171 0 
73.0785 16.1 0 
63.7198 11.7932 0 
59.2712 4.40082 0 
61.0276 8.51671 0 
58.6184 0.874731 0 
58.7778 3.10178 0 
68.1073 15.0429 0 
74.1171 16.6 0 
70.3248 16 0 
58.2237 0 0 
71.6239 16.5 0 
64.5763 13.2312 0 
61.4167 9.96386 0 
75 17 0 
66.6221 14.8327 0 
58.0263 1.74946 0 
59.2376 6.67516 0 
62.2346 11.583 0 
73.2341 17.2 0 
57.6316 0.874731 0 
59.6039 8.12383 0 
57.6923 2.95164 0 
58.2979 5.41449 0 
68.6678 16.4342 0 
74.1171 17.6 0 
65.1369 14.6226 0 
63.0911 13.0211 0 
57.2368 0 0 
59.9702 9.5725 0 
71.7795 17.6 0 
57.1382 1.8996 0 
75 18 0 
67.1826 16.2241 0 
69.4963 17.2171 0 
60.8215 11.2716 0 
57.3582 4.15382 0 
73.0785 18.1 0 
56.7434 1.02487 0 
63.6517 14.4124 0 
56.8041 3.10178 0 
57.8154 6.75019 0 
58.376 8.14151 0 
65.6974 16.0139 0 
73.9615 18.5 0 
61.6059 12.8109 0 
70.3248 18 0 
56.25 0 0 
71.6239 18.5 0 
56.25 2.04975 0 
58.7423 9.59018 0 
56.8757 5.48952 0 
75 19 0 
59.3749 10.8802 0 
67.7432 17.6154 0 
72.9229 19 0 
64.2122 15.8037 0 
62.1665 14.2022 0 
55.7566 1.02487 0 
60.1928 12.4994 0 
66.258 17.4052 0 
68.5717 18.3983 0 
73.9615 19.5 0 
55.7563 3.4912 0 
55.2632 0 0 
56.3932 6.82522 0 
56.9538 8.21654 0 
62.727 15.5935 0 
55.2022 2.43916 0 
57.5143 9.60785 0 
75 20 0 
64.7728 17.195 0 
60.6813 13.992 0 
58.147 10.8979 0 
73.0785 20.1 0 
58.7796 12.188 0 
55.3905 5.27933 0 
54.7088 1.41428 0 
66.8186 18.7965 0 
70.3248 20 0 
74.1171 20.6 0 
63.2876 16.9848 0 
61.2418 15.3833 0 
69.1323 19.7896 0 
54.2763 0 0 
71.6239 20.5 0 
59.2681 13.6806 0 
65.3334 18.5863 0 
75 21 0 
54.1544 2.82857 0 
55.4686 8.00635 0 
54.908 6.61503 0 
56.0291 9.39767 0 
73.2341 21.2 0 
53.7219 1.41428 0 
56.5897 10.789 0 
61.8024 16.7746 0 
57.2224 12.079 0 
63.8482 18.3761 0 
59.7566 15.1731 0 
67.3791 20.1878 0 
74.1171 21.6 0 
53.7886 4.61671 0 
53.2895 0 0 
71.7795 21.6 0 
57.7829 13.4704 0 
53.2285 2.43916 0 
65.8939 19.9776 0 
75 22 0 
62.363 18.1659 0 
60.3172 16.5644 0 
73.0785 22.1 0 
52.7961 1.02487 0 
53.9834 7.79616 0 
54.5439 9.18748 0 
64.4087 19.7674 0 
58.2714 14.9629 0 
70.3248 22 0 
53.4228 6.40485 0 
73.9615 22.5 0 
55.1045 10.5788 0 
69.1323 21.7896 0 
52.7351 3.7382 0 
52.3026 0 0 
67.9397 21.5791 0 
55.6651 11.9701 0 
71.6239 22.5 0 
52.3026 2.04975 0 
60.8778 17.9557 0 
62.9235 19.5573 0 
58.832 16.3542 0 
75 23 0 
66.4545 21.3689 0 
56.2257 13.3614 0 
72.9229 23 0 
51.8092 1.02487 0 
52.3693 5.52633 0 
64.9693 21.1588 0 
51.8092 3.34878 0 
56.7862 14.7527 0 
73.9615 23.5 0 
61.4383 19.3471 0 
59.3926 17.7456 0 
51.4145 1.8996 0 
51.3158 0 0 
53.0587 8.97729 0 
52.4982 7.58597 0 
53.6193 10.3686 0 
71.2128 23.5672 0 
63.4841 20.9486 0 
54.1799 11.7599 0 
57.3468 16.1441 0 
75 24 0 
50.9211 0.874731 0 
51.3158 4.64782 0 
54.7405 13.1512 0 
72.5118 24.0672 0 
69.5776 23.6331 0 
50.9211 3.19864 0 
68.385 23.4226 0 
59.9531 19.1369 0 
61.9989 20.7384 0 
55.301 14.5426 0 
57.9074 17.5354 0 
51.4447 6.70746 0 
67.1321 23.2061 0 
50.5263 1.74946 0 
73.5504 24.5672 0 
50.3289 0 0 
65.6469 22.9959 0 
55.8616 15.9339 0 
75 25 0 
51.5735 8.7671 0 
52.1341 10.1584 0 
49.9342 0.874731 0 
52.6947 11.5497 0 
60.5137 20.5282 0 
58.4679 18.9267 0 
72.1008 25.1344 0 
53.2553 12.941 0 
49.8355 3.34878 0 
56.4222 17.3252 0 
53.8158 14.3324 0 
70.4655 25.2003 0 
73.5504 25.5672 0 
49.4408 1.8996 0 
49.3421 0 0 
63.815 23.2124 0 
59.0285 20.318 0 
49.9595 6.49727 0 
54.3764 15.7237 0 
61.0743 21.9195 0 
56.9827 18.7165 0 
75 26 0 
68.8303 25.2661 0 
49.3989 5.10595 0 
67.5774 25.0496 0 
48.8487 1.02487 0 
62.3298 23.0022 0 
50.6489 9.94823 0 
66.3246 24.8331 0 
50.0883 8.55691 0 
51.2095 11.3395 0 
54.937 17.115 0 
51.7701 12.7309 0 
72.4347 26.4726 0 
59.5891 21.7093 0 
57.5433 20.1078 0 
48.3553 0 0 
52.3306 14.1222 0 
48.3553 2.04975 0 
70.9797 26.4993 0 
55.4975 18.5063 0 
73.8843 26.9053 0 
75 27 0 
52.8912 15.5135 0 
47.8618 1.02487 0 
69.3444 26.5651 0 
64.4926 25.0496 0 
58.1039 21.4991 0 
47.9186 3.80692 0 
53.4518 16.9048 0 
68.3162 26.5651 0 
60.1497 23.1006 0 
56.0581 19.8976 0 
67.0633 26.3486 0 
49.1637 9.73804 0 
49.7243 11.1294 0 
47.3684 0 0 
48.6031 8.34672 0 
50.2849 12.5207 0 
47.3684 2.04975 0 
61.4051 24.1834 0 
66.035 26.3486 0 
48.0426 6.9554 0 
54.0123 18.2961 0 
50.8454 13.912 0 
72.7686 27.8107 0 
73.8843 27.9053 0 
75 28 0 
47.482 5.56409 0 
71.3136 27.8374 0 
62.6606 25.2661 0 
58.6645 22.8904 0 
51.406 15.3033 0 
56.6187 21.2889 0 
46.875 1.02487 0 
46.9318 3.80692 0 
69.8586 27.8642 0 
54.5729 19.6874 0 
51.9666 16.6946 0 
68.8303 27.8642 0 
46.3816 0 0 
64.203 26.5651 0 
46.3816 2.04975 0 
67.802 27.8642 0 
57.1793 22.6803 0 
52.5271 18.0859 0 
48.2391 10.9192 0 
59.6464 24.5 0 
47.6785 9.52785 0 
48.7997 12.3105 0 
72.856 28.9053 0 
75 29 0 
73.9717 29 0 
47.1179 8.13653 0 
66.7737 27.8642 0 
49.3602 13.7018 0 
71.8278 28.9053 0 
45.8882 1.02487 0 
60.9019 25.5828 0 
46.5574 6.74521 0 
49.9208 15.0931 0 
63.0719 26.7325 0 
70.3727 28.9321 0 
53.0877 19.4772 0 
65.7455 27.8642 0 
69.3444 28.9321 0 
62.1465 26.5651 0 
50.4814 16.4844 0 
58.1612 24.2899 0 
45.3947 0 0 
45.7749 5.05301 0 
45.3947 2.04975 0 
68.3162 28.9321 0 
54.7594 21.7738 0 
51.4788 18.4418 0 
64.6143 28.0315 0 
67.2879 28.9321 0 
45.2247 3.29583 0 
75 30 0 
73.9717 30 0 
72.9434 30 0 
44.9013 1.02487 0 
71.9152 30 0 
46.7539 10.709 0 
47.3145 12.1003 0 
66.2596 28.9321 0 
46.1933 9.31766 0 
70.8869 30 0 
47.875 13.4916 0 
52.0394 19.8331 0 
59.1432 25.8994 0 
55.3199 23.1651 0 
45.6327 7.92634 0 
69.8586 30 0 
48.4356 14.8829 0 
63.4832 28.1989 0 
65.2313 28.9321 0 
44.4079 0 0 
60.3877 26.8818 0 
53.2742 21.5636 0 
68.8303 30 0 
44.4079 2.04975 0 
62.5578 28.0315 0 
48.9962 16.2742 0 
56.4771 24.5037 0 
44.8502 6.23413 0 
67.802 30 0 
61.6323 27.8642 0 
44.2378 3.29583 0 
49.9936 18.2316 0 
64.1002 29.0994 0 
43.9145 1.02487 0 
66.7737 30 0 
59.3793 26.9231 0 
44.0678 4.54192 0 
50.991 20.1889 0 
60.6239 27.9055 0 
65.7455 30 0 
63.0719 29.0994 0 
57.4591 26.1133 0 
45.8292 11.8901 0 
45.2687 10.4988 0 
46.3898 13.2814 0 
43.4211 0 0 
52.2258 21.9194 0 
44.7081 9.10747 0 
43.4211 2.04975 0 
46.9504 14.6727 0 
62.1465 28.9321 0 
58.4385 27.0222 0 
64.7172 30 0 
44.1475 7.71616 0 
47.511 16.0641 0 
59.6155 27.9468 0 
43.251 3.29583 0 
53.4606 23.65 0 
63.6889 30 0 
42.9276 1.02487 0 
61.1182 28.9321 0 
48.0715 17.4554 0 
43.365 6.02395 0 
54.6178 24.9885 0 
49.069 19.4127 0 
62.6606 30 0 
58.6747 28.0459 0 
50.8222 21.6733 0 
42.4342 0 0 
60.1098 28.9734 0 
55.775 26.3271 0 
42.4342 2.04975 0 
52.057 23.4039 0 
56.7544 27.236 0 
44.344 11.6799 0 
49.6295 20.804 0 
44.9046 13.0712 0 
61.6323 30 0 
43.7834 10.2886 0 
45.4652 14.4625 0 
43.2228 8.89729 0 
57.7339 28.1449 0 
46.0258 15.8539 0 
59.1213 28.9734 0 
41.9408 1.02487 0 
42.6622 7.50598 0 
46.5863 17.2452 0 
60.604 30 0 
55.9067 27.3302 0 
52.3471 24.5393 0 
53.1846 25.3346 0 
47.1469 18.6365 0 
41.7707 4.59487 0 
56.8861 28.2391 0 
41.4474 0 0 
58.1804 29.0725 0 
50.6533 23.1578 0 
41.3487 1.8996 0 
59.6155 30 0 
54.3417 26.6731 0 
55.1468 27.4186 0 
47.7075 20.0278 0 
49.4607 22.2884 0 
57.2873 29.0725 0 
56.0384 28.3333 0 
43.4194 12.861 0 
42.8588 11.4697 0 
43.98 14.2524 0 
40.8553 0.874731 0 
58.627 30 0 
50.9434 24.2932 0 
40.9539 3.34878 0 
42.2982 10.0784 0 
44.5406 15.6437 0 
48.2681 21.4191 0 
41.7376 8.68711 0 
45.1011 17.035 0 
41.068 6.0769 0 
40.4605 0 0 
56.4396 29.1666 0 
55.2785 28.4216 0 
41.177 7.2958 0 
57.7339 30 0 
45.6617 18.4263 0 
40.2632 1.74946 0 
51.2336 25.4286 0 
52.071 26.2239 0 
52.9085 27.0192 0 
46.2223 19.8176 0 
49.2716 23.6764 0 
53.7135 27.7646 0 
55.6371 29.1666 0 
56.8408 30 0 
54.5186 28.51 0 
39.8684 0.874731 0 
[...]
POINT_DATA 2394
SCALARS cohesion float 1
LOOKUP_TABLE default
25.4346
25.2248
22.2921
22.1606
26.0886
26.5415
22.6926
27.2698
26.2075
34.77
28.7879
23.4281
36.5368
27.7194
35.95
38.6364
34.2631
25.5225
31.5132
27.582
30.7506
36.3793
28.3383
26.3625
41.7163
31.7247
28.9456
33.6094
34.3048
33.626
28.6174
29.8092
25.8209
36.0516
28.5143
40.8163
30.5297
42.0282
35.5024
36.0691
25.8724
44.0935
28.2765
29.2285
43.1316
37.389
29.8017
24.3745
41.5988
25.8202
38.4988
28.8103
34.8267
34.9848
30.1298
38.1869
23.4346
36.2454
40.222
32.6845
25.3181
33.0317
28.3071
29.2615
34.8734
29.6676
32.0391
35.4722
25.1271
31.4292
33.5938
22.9352
39.0617
32.087
28.4654
28.1168
29.3419
31.4633
32.5617
28.2884
27.7767
24.9411
31.1407
25.9358
39.3695
28.8604
24.5522
27.8853
21.569
25.6204
31.1545
31.8728
24.7362
30.4681
29.0938
27.4876
28.4001
40.791
25.54
26.0245
27.0855
29.7111
32.3935
25.0132
22.9302
30.3052
24.8236
28.8668
29.6795
28.0984
28.8751
29.567
40.9145
26.2121
31.1851
27.2646
25.7919
25.0221
34.5709
21.6485
21.8698
25.741
27.7821
27.3508
26.8238
28.6971
31.1818
18.9975
38.758
25.3692
19.646
29.8338
18.222
25.3592
26.6293
35.7053
19.8445
32.7598
29.591
24.4647
32.5601
32.9142
22.5532
25.077
34.7687
18.3047
21.7574
26.6257
20.7533
36.139
26.3593
25.4005
18.3745
22.8226
20.9227
29.7652
22.0522
38.6577
31.3146
22.3054
20.3129
25.3435
28.1398
26.2484
21.2113
27.0854
34.2538
24.1519
21.9611
25.1531
21.1733
22.1037
38.6133
30.9585
29.1275
21.132
24.9792
22.3445
25.074
23.6293
25.3733
19.7798
22.2804
27.1416
25.2013
23.8492
27.1159
31.6103
26.0239
22.1525
38.921
21.5425
31.1592
20.8318
25.005
27.9773
22.2445
22.1692
25.4602
22.9774
20.8621
25.9694
27.7963
28.0312
34.756
25.1254
22.2843
23.1263
22.4187
32.7423
26.7472
30.2932
25.5191
24.0436
27.3052
26.3909
27.2223
30.1108
24.2602
27.5633
30.2663
22.1342
27.2182
23.7163
27.0639
29.8524
28.6198
24.708
26.2475
32.7683
29.4174
33.353
24.2631
31.1503
24.5567
30.6981
27.6728
27.9915
32.4829
27.1583
25.2732
29.378
30.5891
25.0057
23.071
28.9918
31.2531
20.3653
33.4894
32.6012
35.3892
23.6071
27.2526
30.4399
25.5066
29.526
31.0617
28.542
31.7944
30.0651
24.7099
22.9657
35.4526
31.4672
31.3906
27.1911
36.7475
22.5689
32.1138
36.4224
31.5995
33.4358
23.9028
25.6551
22.4047
29.2084
30.622
34.7725
37.9341
32.0182
28.0136
27.8078
32.3908
23.1421
23.2398
28.9874
19.9092
25.6468
23.6296
32.0671
32.3499
33.408
29.2238
30.9699
28.9342
31.919
29.4229
27.879
28.1859
23.7098
40.8092
29.4912
32.8839
22.5015
34.5232
19.2254
25.3986
25.5182
25.9049
33.7771
35.3594
23.5831
29.88
30.9508
35.0585
29.0325
31.0801
33.0017
31.1841
27.3282
31.2089
22.8692
18.753
33.9056
43.3369
22.1794
26.6241
27.4908
36.3883
35.1749
21.8367
30.5418
32.5886
20.536
36.2869
30.1356
27.105
19.7261
36.2128
39.1445
30.1167
37.9114
25.6504
32.5405
30.3754
35.5574
32.0587
30.2408
27.585
42.4039
34.4142
24.2275
18.4219
29.6739
30.2997
19.8634
36.4318
21.369
29.4331
27.1881
30.1974
24.9162
38.2035
35.4576
24.049
23.3142
29.0721
38.8744
35.1343
16.9218
41.0998
28.5841
26.8777
29.3507
30.0427
40.0182
19.4483
32.653
40.6136
35.5894
23.104
31.4203
21.2091
20.8343
20.7534
34.5704
21.7128
34.8617
34.7583
29.9262
22.9822
24.5624
23.4186
22.404
15.8664
31.9676
23.3003
28.8855
36.2594
18.2803
23.5004
36.137
24.8569
24.6839
34.4403
26.085
34.6712
17.4931
17.8066
17.4983
28.8663
23.5972
31.6536
17.9416
24.4603
37.1943
34.2182
29.7006
30.7754
18.7039
14.9652
22.8884
19.2566
34.3186
33.1776
36.8797
29.2069
29.6452
18.7499
19.7818
24.5973
22.6002
22.2556
20.1785
20.8222
23.4803
23.0725
23.5121
24.6207
23.2743
22.6079
29.9813
20.3701
23.9959
23.945
30.6678
15.706
41.7208
38.4632
27.0874
24.1943
28.2231
21.8695
20.2786
29.5123
31.5847
23.3076
24.9844
18.5025
21.8162
33.0472
39.6878
34.0416
25.0274
22.4507
20.3221
26.3367
20.2241
25.224
25.2769
30.8246
24.9711
15.6137
24.2055
24.9495
20.2908
44.8271
26.9618
22.032
29.6444
30.0156
24.2997
23.4432
18.7534
26.9061
20.446
32.7038
25.1446
26.7057
33.0429
25.9621
20.8954
38.0831
24.9544
26.1677
21.0836
29.8326
30.9015
38.1084
16.2012
24.7906
26.7077
21.3896
30.4328
21.9272
46.5195
18.1341
35.8553
32.5917
25.3395
20.2209
29.4583
24.5583
22.3358
25.3777
23.5736
28.4703
32.7943
23.2565
27.3607
27.0011
28.0615
25.3939
32.922
31.8342
36.7546
21.5942
22.9829
30.4019
31.2825
24.7978
34.7866
20.3262
26.0364
41.9834
32.0942
17.6406
25.8494
25.8681
31.8397
29.0818
25.474
24.7504
29.4658
26.9876
30.1504
20.7586
23.5204
31.0088
21.0126
24.4757
27.7303
28.2438
31.9614
26.9398
32.7623
27.0693
27.7556
23.3892
22.2778
35.7291
40.7428
36.1074
16.4447
32.6998
31.6192
27.7705
28.9428
34.4883
30.451
19.3998
31.2144
21.6739
29.9573
24.5385
26.432
33.5908
29.7876
29.4807
28.1358
32.5831
31.5892
33.2991
24.8948
26.6743
21.1729
25.85
24.468
21.8974
38.7461
33.1768
31.3057
38.9385
26.3552
28.5963
30.4418
26.3954
30.1401
33.0911
15.546
19.8478
31.2345
30.6399
31.2522
22.4288
28.9686
33.5336
32.5745
19.9715
34.1248
25.0409
30.6304
27.7587
31.0471
29.2399
27.8789
26.882
33.8881
35.8678
31.7734
36.4634
25.8889
24.5246
44.4029
30.4216
30.6955
21.9727
20.4143
29.4067
26.5622
15.9074
25.7043
32.3229
35.7667
35.8773
32.7645
22.3135
31.1974
33.8314
36.081
29.9017
18.0763
28.1771
36.701
45.1256
32.0658
35.4636
34.8403
30.9465
30.0652
26.9451
25.9134
26.5289
31.6454
31.4477
27.4005
28.6558
31.1011
25.206
30.2459
45.8272
26.4067
16.2301
26.3356
31.4146
41.0264
35.5716
18.565
30.9502
34.1722
23.7848
36.0276
17.5473
36.3413
30.4868
21.8215
31.8443
39.1439
26.7493
40.1057
31.473
31.173
30.5945
35.21
26.7956
35.9123
31.1308
38.4044
35.5893
41.4078
31.1058
37.6277
30.6889
44.2562
25.2841
26.687
27.8821
31.3508
31.5073
31.1423
25.2003
32.282
17.4499
30.8624
29.2616
18.3175
38.6721
26.5574
31.4067
25.9349
33.842
31.2583
37.5291
32.8485
38.5607
30.9085
21.1158
34.8804
34.9319
31.3981
31.1228
29.9284
30.8631
36.2761
32.1373
28.6416
19.773
40.6776
19.0878
31.4764
38.2009
38.1581
32.4181
30.8359
34.103
30.9361
42.1056
31.4627
35.0167
30.8363
31.703
29.8743
30.9116
30.8098
19.0975
31.4009
31.8923
34.0039
33.4023
24.244
28.3467
30.766
41.3278
36.5222
27.4783
25.9208
38.3049
30.6457
33.2862
31.3298
31.447
32.2827
28.8891
20.39
30.6654
26.8001
37.0201
30.443
31.2598
31.1491
20.7895
32.0643
29.6174
30.5733
34.9666
38.2227
30.2604
31.1437
35.4085
17.7102
30.442
29.2081
35.623
23.2179
30.0249
31.0194
33.3239
30.2778
30.3402
30.7099
29.8797
38.46
30.8707
36.1216
39.2708
30.7204
29.9912
30.2019
28.8955
42.9152
19.1312
30.722
29.7001
31.3446
35.4827
29.7572
30.0814
29.9128
29.5681
30.5605
17.9115
29.9348
33.6915
31.9269
30.4261
29.4174
31.2382
30.1413
30.4722
29.214
29.8318
33.3739
29.155
29.335
30.2579
24.0956
29.6728
29.0519
29.4623
32.1725
27.1283
29.6554
30.1339
28.9316
29.2149
34.5588
32.5964
28.9129
29.5768
27.9501
28.8237
30.1331
18.0091
29.112
29.988
29.439
38.8199
36.423
30.1112
29.8673
29.0172
22.2592
31.178
28.6206
29.3484
28.4871
33.9495
29.7328
27.4361
28.9023
28.4844
26.2706
29.2237
28.4253
21.1546
30.6613
30.3572
29.618
28.7812
21.8806
28.361
29.115
28.4982
28.196
29.5007
28.679
28.1325
31.1477
28.9742
19.3839
29.3663
28.5611
27.9991
33.2648
28.8783
29.703
28.3247
29.2208
42.8343
28.0652
29.5592
27.7739
28.7242
28.3018
29.0538
29.9766
28.4677
31.3555
27.8745
27.6113
28.9096
28.3036
29.9521
30.4513
27.6895
28.7605
35.4749
27.8265
29.8291
28.1191
29.3916
28.0479
32.7991
27.3893
28.5881
29.6424
27.2607
29.2384
30.8579
27.9336
30.4861
30.4302
27.0845
28.4235
30.0067
30.1244
27.6138
29.1475
26.9737
27.6049
28.2322
29.935
19.4907
26.91
26.5945
27.481
29.0113
31.0802
27.4205
26.8596
30.8407
31.7599
34.9884
31.841
29.9098
28.0438
24.7195
33.1909
26.7231
30.7546
27.2729
29.3537
27.8819
30.7899
26.4333
30.1905
28.8416
36.4455
27.1527
27.0916
29.2157
30.8796
26.3636
27.7243
26.368
26.1726
18.0318
28.7567
30.5774
26.8072
26.7494
27.5744
30.1049
26.0104
28.5416
21.1342
28.6259
27.4236
31.0633
26.0506
30.2023
42.9758
20.6605
26.5902
29.7163
29.5171
27.4462
22.9077
26.0363
28.642
25.961
30.2823
29.7148
26.5854
29.039
27.3494
25.8318
26.1769
30.2589
26.7939
34.0219
28.5855
25.6643
29.7662
26.2586
27.5486
26.5256
27.3082
26.2982
30.1223
28.6908
25.4557
29.1003
29.7932
26.1896
25.8346
29.8372
27.3133
29.9681
33.8382
22.259
28.6912
25.7267
25.4661
30.054
29.8491
27.1742
26.2163
23.7466
27.3953
28.2837
25.8836
31.9632
38.1618
28.9391
30.1184
26.5143
25.5452
19.2378
28.6687
26.4246
34.6595
27.5366
28.2972
19.8084
29.1575
26.0175
30.2124
25.5288
21.2861
26.6458
27.8177
29.7678
24.8751
27.8479
29.5368
28.4469
35.0361
41.6394
29.9372
23.8321
30.1005
28.4162
20.5276
26.0956
25.5478
20.1276
26.6904
27.0559
28.2418
21.6655
29.906
20.177
30.1745
27.3074
33.0686
26.0833
19.3116
38.8521
25.8372
27.231
28.8568
28.2206
30.4036
29.6618
20.976
20.5191
27.1324
30.5332
24.092
26.2756
27.7839
26.2549
29.6521
22.8916
30.8738
24.7397
28.6839
29.0719
28.7932
29.5007
19.9037
23.2861
38.0291
33.0255
28.6896
27.0147
30.7829
31.2477
18.7986
28.0395
34.1475
24.0586
22.3664
29.7546
32.1461
27.8115
33.1213
31.1607
32.2656
27.5329
25.5358
39.8954
39.6686
27.234
24.4125
27.9786
31.6238
27.5077
27.4836
29.0827
18.6927
25.3077
24.2541
23.134
33.4106
31.2773
30.7222
27.5266
26.1095
29.0529
19.8508
23.1245
28.0538
20.3079
34.7341
30.1996
24.5966
34.7385
33.0611
30.3294
23.2636
29.5428
24.3187
28.742
20.3735
28.8763
24.7862
38.6153
23.5673
28.8179
23.3366
33.4753
34.9526
29.5965
38.3908
35.0909
32.5593
39.7361
20.6999
27.1727
27.5438
28.6866
28.3371
22.1854
27.5096
32.9851
28.5473
37.0089
34.8738
24.7738
37.0193
25.7727
25.1191
34.7766
22.0444
25.9658
23.5797
36.8473
24.6418
31.8755
19.6218
21.8234
25.5835
22.6166
26.7917
27.476
32.882
38.6388
29.3504
37.8242
34.0272
22.7681
31.3634
22.3072
34.0317
24.4859
37.1693
24.4697
27.9689
27.7085
30.5478
28.7553
22.9309
43.206
28.4107
38.2648
25.87
41.5131
34.5557
36.2681
24.1094
26.8848
23.6308
22.7041
36.9996
27.7713
38.7893
25.377
35.3306
35.2056
30.4294
35.9263
43.2943
27.9208
24.9383
26.4553
34.1294
25.6251
24.6195
24.4288
27.2166
25.2034
27.4926
32.5208
27.5605
32.497
27.5383
26.3863
26.1904
32.8626
28.6201
43.4169
33.4188
29.5321
26.1855
41.0893
44.5372
17.9123
30.7557
24.9575
30.7351
37.5687
22.9665
39.9911
25.7164
28.5591
30.0261
25.5731
29.7868
26.8063
36.7597
28.5945
27.7017
27.1755
45.0669
25.8664
28.5152
34.0892
29.9574
23.8436
26.1427
22.1769
28.437
26.4894
27.4301
28.6336
29.4933
30.5062
25.6651
21.8673
25.8135
26.8139
30.9479
28.5814
41.0445
31.0543
28.1907
33.236
24.5089
34.3837
41.5077
43.0367
26.0751
41.2494
23.139
31.0513
23.6008
30.2249
27.5815
27.1255
26.6314
24.0645
27.0191
26.7323
30.6266
34.633
34.2659
22.9831
23.7908
28.1684
30.9579
27.7906
29.9662
31.9046
25.8754
23.2221
25.7028
41.3675
28.3514
28.2669
28.3599
26.8356
28.2143
24.1062
25.8952
41.247
25.9672
28.739
30.6287
23.6448
25.9994
20.2756
25.7287
35.4546
23.9186
39.9716
27.3027
28.2463
32.9972
27.4442
34.0145
27.5419
23.5863
25.085
25.8708
25.2227
28.2368
22.9594
23.8749
26.8354
23.8961
22.6117
31.9826
31.2264
41.0442
25.9806
27.868
28.3757
27.0472
42.9056
27.8014
35.7243
23.1786
29.0774
28.1842
31.0497
24.8183
23.7444
25.2081
23.7785
25.876
21.8178
25.4949
32.9478
29.8345
21.5977
21.7123
28.1611
23.1509
24.5197
28.1231
23.2186
39.5028
22.4447
31.8141
34.4714
27.743
28.4041
24.6594
37.8053
26.5059
22.1168
24.4951
40.0257
25.2552
26.3985
25.0967
26.1798
32.9721
26.8697
25.4409
21.9696
28.3624
29.6493
33.9024
23.2101
23.8709
27.0859
23.3415
28.4273
24.6508
31.8756
25.7716
25.9509
30.8285
27.2875
22.4661
24.7078
26.2919
26.6572
26.9346
22.0328
22.3109
20.641
25.7237
20.2219
27.2455
24.5179
21.4302
25.8957
25.8176
31.053
25.7283
26.3925
33.3179
38.9221
22.7043
31.8894
26.5401
26.2213
27.6047
29.5173
31.4653
24.475
25.7046
23.5316
30.0988
23.6467
23.4904
20.7952
26.4485
21.9534
24.6507
23.8466
24.7311
29.8559
22.2958
30.4065
33.9358
24.7511
24.5058
21.749
33.3396
26.1585
22.2951
32.7307
25.1591
33.3542
21.7046
25.314
26.8213
30.5676
24.7174
28.333
23.6207
22.7816
27.4024
37.7412
27.6866
18.633
22.7437
24.3002
23.9214
18.8709
20.5438
26.3764
23.8103
21.561
26.0064
26.4774
33.1433
27.3771
22.1103
22.1314
31.1565
23.3973
30.081
23.3395
21.5784
23.7436
27.0149
26.7646
23.1827
27.3185
21.5647
24.2285
18.7275
27.5307
29.2876
22.1163
21.7683
22.0156
24.0862
25.6128
23.4474
22.4811
33.2043
31.9403
27.7375
21.8854
20.7887
25.7384
21.572
21.899
36.2404
22.2905
36.405
23.1615
26.0311
22.1319
23.5873
20.5513
22.1609
32.2118
21.5606
26.6832
25.6112
22.2269
24.6826
23.9621
27.6245
27.6164
21.9826
34.5436
22.9707
25.0445
23.1328
18.2008
28.5014
19.9159
27.7782
25.1079
22.9408
24.3176
28.3012
21.7153
21.8592
22.9828
27.7134
23.8462
23.7834
29.6253
17.2157
22.0042
25.6975
25.5402
22.7391
19.7693
22.4366
22.3216
24.5865
27.9671
30.6989
27.0479
21.6504
21.4831
20.8664
23.3181
22.758
21.829
35.2159
22.7733
19.5485
24.0748
22.1181
23.991
24.3125
26.4937
34.5058
26.4507
20.5719
28.0458
22.3652
22.2065
19.622
22.6423
27.4657
21.747
24.5548
28.4542
24.2093
25.8787
34.2625
24.515
28.2709
23.5773
27.6919
20.1498
26.5861
30.274
26.5478
21.7215
37.6834
19.2921
24.2093
21.1379
22.5141
26.2387
21.5702
24.1427
25.8654
27.4968
19.9363
22.4766
26.9306
22.0061
20.4108
19.2691
26.2049
24.6186
19.2534
23.6841
29.5747
20.3169
17.7453
34.4597
24.7219
26.1615
27.4876
21.3423
26.9814
29.4516
17.6922
24.6632
21.6767
18.7706
17.3899
20.108
23.1415
31.4017
25.3347
32.2188
27.5205
27.407
22.983
26.7079
26.9557
18.6015
24.876
21.6235
20.8348
22.925
19.2391
31.8359
27.2655
21.0154
18.4979
19.0567
26.4818
22.4313
20.8731
20.2304
24.3954
29.0311
23.5963
19.0634
26.8457
33.132
20.88
18.6728
27.0301
21.0652
20.5764
22.1016
19.7802
23.9164
28.2501
18.7047
27.5663
22.7979
18.4553
22.1818
18.0213
25.4906
28.4492
24.9695
31.0046
24.0915
23.3007
20.4492
19.6399
15.8405
26.4752
18.5463
19.0281
31.6848
18.4812
20.6389
26.3053
21.1262
23.3487
23.3911
24.1315
22.3147
19.5163
18.4183
18.2925
19.869
21.7951
30.7753
18.4624
20.2359
33.787
40.3227
32.608
18.3246
18.2721
26.542
26.9121
20.6981
18.6042
23.9381
26.6246
25.6976
20.7034
19.6926
21.1732
18.0155
23.3797
18.5524
20.3769
26.1145
20.2905
17.9543
19.2126
20.4445
25.779
18.1291
20.6602
21.9607
25.6922
23.2379
28.8009
32.8965
17.8501
18.0298
20.3837
25.0394
21.9269
19.1251
35.2657
18.0396
22.6747
17.9915
18.9276
27.464
17.4125
18.0137
25.8041
20.1667
17.8378
24.668
31.5834
14.1768
28.0937
26.9819
20.0983
18.8315
17.965
19.9297
17.8553
28.5046
23.98
18.6609
19.7935
20.0254
17.8241
17.7563
21.3072
18.8454
17.4018
22.7356
20.3361
27.7235
17.7905
17.8234
32.6192
25.4555
19.032
30.6903
17.8431
28.1859
23.3989
17.7019
19.2707
29.3199
20.7455
17.8508
25.052
22.2484
19.6675
19.2454
26.7364
23.3297
17.7121
25.7654
18.0469
30.9308
28.8118
20.7456
26.2667
29.7293
17.7261
17.5195
25.3204
19.592
18.0008
38.3323
24.3392
20.8665
30.6154
17.5476
23.5335
19.2966
19.4161
30.2083
28.2884
25.5709
17.8254
18.3155
27.0956
17.4636
24.3121
19.8256
24.5281
21.552
14.8257
21.611
17.8406
20.3432
17.5547
30.7919
31.172
18.1939
26.5048
21.4961
44.4029
34.3594
17.3367
16.6474
32.4517
20.0362
26.8047
29.1318
23.2354
26.9599
23.395
18.1981
25.4367
21.5933
23.2154
17.3436
21.6297
19.8248
21.7302
21.7369
23.2583
17.9311
24.5444
27.1004
32.6725
22.0385
29.8672
17.2778
27.7363
20.0272
26.7551
18.3481
28.5919
17.9404
21.8202
41.6643
17.4244
16.4
35.2188
20.301
30.1307
35.0498
18.1247
17.1477
26.5548
28.5626
17.2824
30.9362
27.2691
22.0969
18.2208
23.966
31.966
28.8423
23.0001
17.3485
24.7621
24.3619
25.4937
20.5165
20.3165
24.8576
22.9302
30.1026
25.9854
19.4292
13.7021
17.1549
26.394
18.1396
27.7016
18.4326
29.9444
22.2342
27.1035
35.1661
33.3476
20.6644
16.5509
17.3993
34.427
21.7153
29.4765
28.6679
18.3266
15.0932
27.2726
38.2926
23.6188
30.7588
35.8078
17.401
21.1525
23.4449
26.6552
27.232
23.6043
18.6157
29.4255
27.148
27.0189
22.9895
25.7737
17.3803
31.5308
17.55
33.5443
21.204
22.3947
35.9945
19.3547
18.4255
22.4384
19.541
17.8921
27.6042
32.4303
17.1559
16.1721
21.275
31.8286
42.0697
32.9631
23.5313
24.407
19.8921
30.0622
25.9815
41.4126
17.2727
33.1574
13.6964
23.8858
21.8348
33.0147
32.8977
20.179
37.2903
17.0719
23.9797
27.7233
17.1368
22.7177
26.868
25.0202
21.8986
23.1653
28.3196
15.5832
19.6192
22.3554
29.4171
20.1703
29.1578
14.1632
31.8873
31.9748
17.5264
27.3554
20.7239
36.9745
24.0916
38.2716
22.2479
22.1223
19.5003
33.4976
17.702
36.0106
24.5582
37.3812
18.482
37.7735
18.5855
30.4334
22.5136
17.4691
19.6273
18.2327
26.1923
32.3753
25.3389
28.9496
22.4305
22.5706
23.9985
31.5197
22.6747
27.18
19.0365
23.0495
21.9942
20.0217
16.5944
18.0921
23.2938
13.8639
38.22
36.0337
23.0925
28.0509
38.3213
18.2279
20.1654
36.0324
37.3427
18.3083
27.9899
23.2787
17.7152
44.0636
22.7511
24.523
20.0609
34.6129
20.7953
16.861
29.6647
18.014
27.1365
28.8348
22.1299
23.8128
18.0422
22.6693
19.95
33.5283
28.643
24.571
21.011
18.0901
30.7177
25.9694
38.1819
36.9426
27.8024
19.2798
14.2757
22.7805
27.5686
36.7171
20.9355
21.9416
18.947
19.5582
17.7971
41.1924
33.03
23.7207
28.7344
20.8766
14.1861
22.6718
27.1377
19.5516
18.0979
27.4404
15.5899
30.5504
32.3633
17.5779
28.2498
34.5194
21.2613
34.4709
22.1189
32.3673
18.7435
26.0618
31.1718
30.3241
37.0475
25.4277
33.9122
18.615
27.8404
17.8727
20.9572
20.7072
24.3544
17.2585
29.6236
15.9797
17.0216
31.583
22.5062
15.9521
33.9105
17.7029
19.3877
33.8113
21.2406
20.7599
28.1781
38.2273
20.8876
29.1085
35.7048
31.951
14.7353
17.6014
27.9662
19.1121
22.1325
31.9148
24.0974
30.1516
27.6062
20.6724
20.6755
33.1134
26.8184
20.2075
30.9098
19.8294
37.206
34.8946
35.05
16.9649
22.8794
29.14
14.1438
30.5542
38.9294
29.511
35.4482
21.2179
35.1665
16.985
20.3034
17.2416
33.3665
14.1709
17.2515
21.8742
20.9803
18.9356
41.288
30.9953
23.6324
22.0584
29.423
32.8081
36.2148
20.0777
16.7564
28.9781
34.1851
19.6617
33.8092
26.6728
16.6657
30.1451
29.152
34.8599
32.7155
23.2986
19.5703
21.5513
19.1018
20.4255
30.04
16.2701
14.604
41.1517
30.4293
20.3656
40.4797
19.5959
25.4144
21.6289
43.8297
19.3739
27.7946
16.7461
29.0685
32.39
40.3719
20.0124
37.0551
34.1996
18.8402
29.3335
24.5696
18.8555
36.163
18.9147
40.8172
31.3179
31.3431
16.2439
15.0488
36.5642
38.5206
31.9699
45.4835
20.8469
29.8046
45.6429
18.9968
27.8094
18.6282
16.91
33.7174
39.6367
30.4407
16.3874
15.1052
29.8598
31.0853
39.98
34.2948
18.6043
28.1775
18.5999
35.9004
15.9852
18.4684
43.4847
27.4667
31.4806
43.2378
19.0142
26.925
18.4391
18.2965
29.7138
37.5148
24.1804
15.869
16.2203
32.2419
24.2594
39.2013
13.2781
22.3153
32.3715
19.2763
28.5689
32.2367
15.8486
18.1282
17.8157
22.4865
25.5302
31.7126
18.8106
29.6772
30.8121
29.3196
17.9946
16.1419
18.1056
17.4944
28.3132
19.4114
28.6564
19.4923
35.5904
18.0235
29.8884
18.2702
15.9193
25.5402
33.7054
20.22
12.8918
26.5292
32.0677
18.1287
29.7773
18.1795
18.3452
16.3492
23.9413
24.5106
37.8203
31.0431
17.8746
19.0606
18.7038
16.1755
34.511
19.5564
37.4201
19.5915
31.9232
18.9605
25.8465
29.5611
18.9052
16.6627
38.1462
14.2674
29.1164
34.9228
19.8796
16.7221
19.0647
36.0434
19.1164
36.8155
20.4297
20.6113
35.5729
17.3973
19.6324
19.4544
16.7837
36.952
19.8734
19.9304
17.4159
20.2799
33.1928
22.013
20.2489
18.0192
20.8516
17.0904
18.1975
20.0043
20.8867
21.7561
18.8789
21.1844
18.8324
SCALARS friction float 1
LOOKUP_TABLE default
9.23883
9.24152
8.68249
8.6763
9.36305
8.01367
8.70231
7.94876
9.49918
6.83625
8.18098
8.83484
6.63657
9.54634
6.47133
6.46096
8.04736
9.07812
7.42169
9.65812
8.39395
7.18128
9.09851
9.34076
7.82317
9.03795
9.94918
8.72156
9.21368
8.86417
10.1869
8.9072
9.73106
8.29969
10.2882
7.56866
10.0292
7.7771
8.97699
8.25661
10.0428
7.11992
10.8898
10.5691
7.01123
9.07428
10.5584
11.5917
7.22099
10.3017
7.39734
10.7547
7.95626
9.50611
11.0838
7.90292
11.5351
8.522
7.90533
8.66828
10.5932
9.08207
9.87384
11.0155
9.50812
11.2307
9.76016
9.84124
10.8463
10.3457
10.8391
11.8085
7.82884
9.49437
11.1301
9.69393
12.0192
12.8884
11.6199
11.6428
13.5587
10.9759
10.9705
13.824
7.51308
11.4072
13.6597
11.8688
12.1519
13.5989
10.6935
13.8455
11.0298
9.03572
11.2831
12.518
11.3854
7.20225
15.6047
14.184
12.0777
11.6271
10.1646
16.5157
12.0725
11.764
10.9941
9.37118
12.3132
11.8684
11.471
15.6103
7.24408
11.7619
12.8329
13.0789
13.7564
10.8072
9.10424
13.1797
12.4432
15.5737
9.55934
11.9124