# vtk DataFile Version 3.0
File generated from DClib
ASCII

DATASET UNSTRUCTURED_GRID
POINTS 922 float
50 0 0 
50 1.66667 0 
47.9167 0 0 
50 3.33333 0 
45.8333 0 0 
50 5 0 
43.75 0 0 
50 6.66667 0 
43 2 0 
41.6667 0 0 
50 8.33333 0 
43 4.66667 0 
50 10 0 
43 7.33333 0 
39.7917 2 0 
39.5833 0 0 
43 10 0 
37.5 0 0 
36.5833 2 0 
36 4 0 
35.4167 0 0 
36 5 0 
36 6 0 
34.875 4 0 
36 7 0 
36 8 0 
36 9 0 
33.3333 0 0 
33.75 4 0 
33.375 2 0 
36 10 0 
32.625 4 0 
33 6 0 
33 7.38776 0 
31.25 0 0 
31.5 4 0 
33 8.72989 0 
31.25 6 0 
33 10 0 
30.1667 2 0 
30.375 4 0 
29.1667 0 0 
29.25 4 0 
29.5 6 0 
30 8 0 
30 8.38776 0 
30 8.77551 0 
30 9.11765 0 
29.375 8 0 
30 9.45978 0 
28.125 4 0 
30 9.72989 0 
29.5436 8.77551 0 
29.7872 9.45978 0 
30 10 0 
29.9616 10.0384 0 
29.9232 10.0768 0 
29.8781 10 0 
29.7038 9.72989 0 
29.5732 9.45978 0 
29.8635 10.1365 0 
29.8013 10.0768 0 
29.7562 10 0 
29.3407 9.11765 0 
29.8038 10.1962 0 
29.7179 10.0384 0 
29.0879 8.77551 0 
29.6796 10.0768 0 
28.75 8 0 
29.5896 10 0 
29.682 10.1962 0 
29.3212 9.45978 0 
29.7137 10.2863 0 
28.8513 8.38776 0 
29.62 10.1365 0 
29.5133 10.0768 0 
29.5605 10.1962 0 
29.318 9.72989 0 
29.6237 10.3763 0 
29.423 10 0 
27.0833 0 0 
29.3851 10.0384 0 
29.4708 10.2863 0 
29.0681 9.45978 0 
29.5022 10.3763 0 
29.3471 10.0768 0 
29.3947 10.1962 0 
29.4922 10.5078 0 
27.75 6 0 
29.2882 10.1365 0 
29.2009 10 0 
29.3811 10.3763 0 
28.6181 8.77551 0 
26.9583 2 0 
29.2293 10.1962 0 
29.1257 10.0768 0 
29.3606 10.6394 0 
29.2162 10.3763 0 
28.6273 9.11765 0 
28.7679 9.45978 0 
29.1405 10.2863 0 
29.25 10.5078 0 
28.9787 10 0 
28.125 8 0 
28.8217 9.72989 0 
29.2395 10.6394 0 
28.9416 10.0384 0 
29.009 10.1962 0 
27 4 0 
29.0518 10.3763 0 
28.9045 10.0768 0 
29.119 10.6394 0 
28.8468 10.1365 0 
29.1744 10.8256 0 
28.4666 9.45978 0 
28.7892 10.1962 0 
28.69 10 0 
28.1489 8.77551 0 
28.9223 10.5078 0 
28.8333 10.3763 0 
28.9555 10.6394 0 
28.617 10.0768 0 
28.7024 10.2863 0 
28.9337 10.8256 0 
28.9882 11.0118 0 
28.7928 10.6394 0 
28.6156 10.3763 0 
28.5038 10.1962 0 
28.4012 10 0 
27.6992 8.38776 0 
28.8679 11.0118 0 
28.1088 9.45978 0 
28.3655 10.0384 0 
28.1935 9.72989 0 
27.5 8 0 
28.3298 10.0768 0 
28.5771 10.6394 0 
28.7485 11.0118 0 
28.489 10.5078 0 
27.8468 9.11765 0 
28.6098 10.8256 0 
28.2744 10.1365 0 
27.6621 8.77551 0 
28.3334 10.3763 0 
28.219 10.1962 0 
28.7333 11.2667 0 
28.5871 11.0118 0 
28.3626 10.6394 0 
28.0354 10 0 
28.1356 10.2863 0 
27.75 9.45978 0 
28.427 11.0118 0 
27.9662 10.0768 0 
28.0523 10.3763 0 
28.4949 11.2667 0 
28.184 10.8256 0 
28.0852 10.6394 0 
27.8587 10.1962 0 
28.2155 11.0118 0 
28.4783 11.5217 0 
27.9307 10.5078 0 
27.1759 8.77551 0 
25.875 4 0 
27.6697 10 0 
26.875 8 0 
27.6363 10.0384 0 
28.3594 11.5217 0 
27.6029 10.0768 0 
28.177 11.2667 0 
27.3262 9.45978 0 
27.4134 9.72989 0 
28.0057 11.0118 0 
27.6971 10.3763 0 
27.8094 10.6394 0 
28.2416 11.5217 0 
27.551 10.1365 0 
27.4992 10.1962 0 
26 6 0 
26.9863 9.11765 0 
28.0837 11.5217 0 
27.4211 10.2863 0 
27.7352 11.0118 0 
27.638 10.8256 0 
28.141 11.859 0 
27.2186 10 0 
27.9274 11.5217 0 
26.5417 8.38776 0 
27.3432 10.3763 0 
27.4616 10.6394 0 
26.6684 8.77551 0 
27.7621 11.2667 0 
26.9013 9.45978 0 
27.155 10.0768 0 
25 0 0 
26.25 8 0 
27.9066 11.859 0 
27.2294 10.5078 0 
27.467 11.0118 0 
27.7222 11.5217 0 
27.0563 10.1962 0 
27.1158 10.6394 0 
27.5191 11.5217 0 
26.7674 10 0 
26.9078 10.3763 0 
27.8036 12.1964 0 
26.7374 10.0384 0 
27.5976 11.859 0 
26.7074 10.0768 0 
27.1297 11.0118 0 
27.2334 11.2667 0 
26.1616 8.77551 0 
26.4044 9.45978 0 
27.6871 12.1964 0 
26.6608 10.1365 0 
26.9553 10.8256 0 
26.4658 9.72989 0 
27.2584 11.5217 0 
26.6142 10.1962 0 
27.5718 12.1964 0 
24.75 4 0 
26.544 10.2863 0 
26.6911 10.6394 0 
26.0333 9.11765 0 
25.625 8 0 
27.4193 12.1964 0 
26.7951 11.0118 0 
27.1983 11.859 0 
26.4737 10.3763 0 
27.0006 11.5217 0 
26.2261 10 0 
27.2684 12.1964 0 
26.3711 10.5078 0 
26.1706 10.0768 0 
25.9068 9.45978 0 
25.6301 8.77551 0 
27.3729 12.6271 0 
27.0723 12.1964 0 
26.5764 11.2667 0 
26.0842 10.1962 0 
26.2685 10.6394 0 
25.377 8.38776 0 
26.6777 11.5217 0 
26.3853 11.0118 0 
27.1446 12.6271 0 
26.8784 12.1964 0 
26.6935 11.859 0 
25.9539 10.3763 0 
26.1234 10.8256 0 
25 8 0 
25.6847 10 0 
26.3582 11.5217 0 
23.75 2 0 
25.6594 10.0384 0 
26.6314 12.1964 0 
25.634 10.0768 0 
26.8487 12.6271 0 
25.0992 8.77551 0 
25.3333 9.45978 0 
25.9784 11.0118 0 
25.5945 10.1365 0 
24.25 6 0 
25.7632 10.6394 0 
25.5549 10.1962 0 
26.9422 13.0578 0 
25.3422 9.72989 0 
25.4952 10.2863 0 
26.3874 12.1964 0 
26.8294 13.0578 0 
24.9782 9.11765 0 
25.968 11.5217 0 
25.4353 10.3763 0 
23.625 4 0 
26.7177 13.0578 0 
26.4709 12.6271 0 
26.0703 11.859 0 
25.7799 11.2667 0 
25.3477 10.5078 0 
26.5729 13.0578 0 
24.375 8 0 
26.0835 12.1964 0 
25.4927 11.0118 0 
25.0532 10 0 
24.5409 8.77551 0 
25.2597 10.6394 0 
26.4296 13.0578 0 
25.0081 10.0768 0 
24.7595 9.45978 0 
25.5816 11.5217 0 
24.9377 10.1962 0 
22.9167 0 0 
26.246 13.0578 0 
25.7833 12.1964 0 
25.1349 10.8256 0 
25.9977 12.6271 0 
24.2034 8.38776 0 
26.412 13.588 0 
24.831 10.3763 0 
26.0644 13.0578 0 
25.0097 11.0118 0 
25.3193 11.859 0 
26.1925 13.588 0 
25.1215 11.5217 0 
25.4183 12.1964 0 
23.75 8 0 
23.983 8.77551 0 
24.4216 10 0 
25.8356 13.0578 0 
24.6735 10.6394 0 
24.402 10.0384 0 
24.3824 10.0768 0 
24.1101 9.45978 0 
24.8375 11.2667 0 
24.3517 10.1365 0 
24.3209 10.1962 0 
25.4179 12.6271 0 
25.9145 13.588 0 
25.6093 13.0578 0 
24.2742 10.2863 0 
24.0443 9.72989 0 
23.8155 9.11765 0 
25.0573 12.1964 0 
24.2272 10.3763 0 
22.5 4 0 
24.4478 11.0118 0 
24.6646 11.5217 0 
24.158 10.5078 0 
25.3298 13.0578 0 
25.8819 14.1181 0 
25.5653 13.588 0 
24.0881 10.6394 0 
23.3961 8.77551 0 
25.7745 14.1181 0 
23.125 8 0 
23.7058 10 0 
25.6676 14.1181 0 
22.5 6 0 
24.6289 12.1964 0 
25.0535 13.0578 0 
23.9883 10.8256 0 
23.461 9.45978 0 
24.4349 11.859 0 
23.6731 10.0768 0 
25.5335 14.1181 0 
23.019 8.38776 0 
24.7229 12.6271 0 
23.6216 10.1962 0 
24.1341 11.5217 0 
25.1327 13.588 0 
23.8872 11.0118 0 
25.4 14.1181 0 
23.5426 10.3763 0 
24.7194 13.0578 0 
25.233 14.1181 0 
24.204 12.1964 0 
23.7472 11.2667 0 
22.8093 8.77551 0 
23.4243 10.6394 0 
22.5 8 0 
25.0671 14.1181 0 
24.3887 13.0578 0 
23.6052 11.5217 0 
24.6061 13.588 0 
22.9901 10 0 
25.2539 14.7461 0 
22.9769 10.0384 0 
24.8614 14.1181 0 
22.7421 9.45978 0 
22.9637 10.0768 0 
22.9429 10.1365 0 
21.375 4 0 
23.2515 11.0118 0 
22.5457 9.11765 0 
22.922 10.1962 0 
23.7117 12.1964 0 
25.046 14.7461 0 
23.9078 12.6271 0 
22.8899 10.2863 0 
24.6571 14.1181 0 
22.8574 10.3763 0 
22.5862 9.72989 0 
23.998 13.0578 0 
23.4145 11.859 0 
22.8089 10.5078 0 
22.1933 8.77551 0 
20.8333 0 0 
24.791 14.7461 0 
24.4076 14.1181 0 
21.875 8 0 
22.7595 10.6394 0 
23.0055 11.5217 0 
23.9777 13.588 0 
22.6878 10.8256 0 
21.822 8.38776 0 
23.2211 12.1964 0 
23.6104 13.0578 0 
24.1597 14.1181 0 
24.4776 14.7461 0 
22.6143 11.0118 0 
20.5417 2 0 
22.0242 9.45978 0 
22.2027 10 0 
22.1829 10.0768 0 
22.1513 10.1962 0 
24.6259 15.3741 0 
23.8624 14.1181 0 
22.5107 11.2667 0 
21.5771 8.77551 0 
24.5253 15.3741 0 
22.1017 10.3763 0 
24.0946 14.7461 0 
22.9704 12.6271 0 
24.4245 15.3741 0 
21.25 8 0 
23.1626 13.0578 0 
20.75 6 0 
22.404 11.5217 0 
22.0253 10.6394 0 
22.6655 12.1964 0 
24.3035 15.3741 0 
23.5669 14.1181 0 
23.2428 13.588 0 
20.25 4 0 
24.1821 15.3741 0 
22.2583 11.859 0 
21.9095 11.0118 0 
24.0354 15.3741 0 
23.6316 14.7461 0 
21.1769 9.11765 0 
22.7163 13.0578 0 
21.2482 9.45978 0 
23.2196 14.1181 0 
21.4154 10 0 
23.8883 15.3741 0 
21.4085 10.0384 0 
21.4016 10.0768 0 
21.3905 10.1365 0 
20.9332 8.77551 0 
21.3792 10.1962 0 
21.3616 10.2863 0 
22.108 12.1964 0 
20.625 8 0 
23.7106 15.3741 0 
21.3434 10.3763 0 
21.7377 11.5217 0 
21.3158 10.5078 0 
20.6106 8.38776 0 
22.874 14.1181 0 
20.9961 9.72989 0 
23.5323 15.3741 0 
21.2869 10.6394 0 
23.9109 16.0891 0 
23.0804 14.7461 0 
22.2122 13.0578 0 
21.2441 10.8256 0 
22.3997 13.588 0 
23.3184 15.3741 0 
21.91 12.6271 0 
23.7168 16.0891 0 
21.1989 11.0118 0 
22.4765 14.1181 0 
23.1037 15.3741 0 
20.2886 8.77551 0 
21.1336 11.2667 0 
20.4742 9.45978 0 
21.4902 12.1964 0 
23.4886 16.0891 0 
20 8 0 
20.5755 10 0 
20.5672 10.0768 0 
19.125 4 0 
21.0644 11.5217 0 
21.7064 13.0578 0 
20.5533 10.1962 0 
22.8492 15.3741 0 
20.5305 10.3763 0 
23.217 16.0891 0 
18.75 0 0 
22.4362 14.7461 0 
22.0799 14.1181 0 
20.9674 11.859 0 
20.493 10.6394 0 
22.5939 15.3741 0 
22.8917 16.0891 0 
20.4322 11.0118 0 
19 6 0 
20.8648 12.1964 0 
19.7252 9.11765 0 
21.4494 13.588 0 
19.6198 8.77551 0 
23.1959 16.8041 0 
19.375 8 0 
21.1471 13.0578 0 
22.2963 15.3741 0 
21.634 14.1181 0 
23.1028 16.8041 0 
19.3826 8.38776 0 
19.6592 9.45978 0 
23.0087 16.8041 0 
20.3354 11.5217 0 
22.5023 16.0891 0 
19.7357 10 0 
20.7266 12.6271 0 
22.9022 16.8041 0 
19.7337 10.0384 0 
19.7316 10.0768 0 
21.6986 14.7461 0 
19.7282 10.1365 0 
21.9981 15.3741 0 
19.7246 10.1962 0 
22.7943 16.8041 0 
19.7187 10.2863 0 
19.7123 10.3763 0 
19.7021 10.5078 0 
22.6703 16.8041 0 
21.1873 14.1181 0 
19.691 10.6394 0 
20.5814 13.0578 0 
22.5445 16.8041 0 
19.315 9.72989 0 
19.6735 10.8256 0 
20.1866 12.1964 0 
21.6575 15.3741 0 
18 4 0 
18.75 8 0 
22.04 16.0891 0 
18.9498 8.77551 0 
19.6542 11.0118 0 
22.3982 16.8041 0 
19.6249 11.2667 0 
22.2495 16.8041 0 
19.5925 11.5217 0 
20.6965 14.1181 0 
21.3165 15.3741 0 
18.8474 9.45978 0 
20.395 13.588 0 
22.076 16.8041 0 
20.8727 14.7461 0 
19.5453 11.859 0 
18.8678 10 0 
22.415 17.585 0 
18.8667 10.0768 0 
17.3333 2 0 
21.4999 16.0891 0 
21.8995 16.8041 0 
19.969 13.0578 0 
18.8645 10.1962 0 
18.8602 10.3763 0 
19.4934 12.1964 0 
18.125 8 0 
22.2346 17.585 0 
20.9365 15.3741 0 
18.8517 10.6394 0 
21.6943 16.8041 0 
18.261 8.77551 0 
18.1362 8.38776 0 
20.2023 14.1181 0 
22.0344 17.585 0 
18.8358 11.0118 0 
18.2149 9.11765 0 
19.4214 12.6271 0 
21.4858 16.8041 0 
20.5569 15.3741 0 
21.8073 17.585 0 
18.807 11.5217 0 
20.8831 16.0891 0 
17.25 6 0 
21.246 16.8041 0 
19.3437 13.0578 0 
16.6667 0 0 
18.0163 9.45978 0 
16.875 4 0 
[...]
POINT_DATA 922
SCALARS phi float 1
LOOKUP_TABLE default
-1.13681e+06
-15588.6
-667284
-20094.9
-380906
-20282.4
-262496
-23449.8
-1.22205e+06
-125784
-468971
-22617.6
-1.93289e+06
-13042.6
-499255
-59119.6
-1.44472e+06
-16664.3
-293043
-1.39276e+06
2273.15
1780.31
-747.444
-961812
-741.817
-1415.77
-341609
3095.16
-673860
-171820
-955614
-735381
-6859.95
-13899.1
471.002
-552012
-153352
-47778.3
-664987
-114530
-620947
-189.665
-489361
-58998.4
-5484.34
-8571.84
-18125.3
-98.2319
-25016.9
-397.123
-574423
-12269.1
-59347.9
-77056.7
-37008.1
-459742
29566.7
-100083
-99485.1
-40682.8
-150667
13126.3
-313089
-60333.5
-66811.1
-87358.1
-65641.4
-1594.16
-34135.8
-184734
-104499
-33325.3
-195830
-107776
-3954.31
10614
-20843.1
-56885.7
-203557
-136106
-1589.64
-8542.41
-100806
-34642.1
-157560
-11932.6
-24262
-330517
-83284.4
5027.07
-88428
-44442
-67688.6
-107189
11325.6
-479.944
-197379
-98405.2
-67941.7
-35299.5
-24962.8
-124475
-68999.7
-47482.5
-51489.9
-166974
20.7492
4792.74
-478111
-27372.2
13.6454
-101045
124.695
-295616
-50644.9
-767.068
-66209
-76065.9
-69460
-44032.7
-73906.4
-76.3465
4757.27
-153598
-189930
-21335.9
2084.84
306.411
-81906.9
-117804
-155824
-50008.9
-517.584
-72948.5
-57554.1
-446.523
-116454
-85514.7
-55045.7
-81339.8
-68100
-794.193
-75092
-4475
-553.899
-236760
-73283.7
-61208.3
-83444.1
-896.216
-68213.2
-54141.5
-465.073
-11.4097
-137958
-92343.8
-77991.1
-889.146
-62427
-144073
-8596.34
-80921.3
-567711
-127167
-63239
-482.475
-143349
-447.462
-94893.4
-66012.9
-104732
-24478.9
-1629.72
-16771.8
-101834
-1090.05
-1076.84
-104597
-93287.4
-96951
-2477.34
-196596
-110237
-193998
-124422
-63266
-114059
-2410.31
-14228.2
-76656.3
-57680.2
-86510.4
-396.445
-18782.8
-68504.2
-144514
-5530.79
-155140
-52909.7
-1017.87
-4849.23
-40112
-174842
-2360.29
-135225
-230.405
-107488
-222.722
-124154
-188139
-79565.8
-81801
-146207
-674.145
-21805
-136340
-113956
-641.709
-106027
-481239
-1735.24
-4987.29
-100847
-71148.6
-117985
-30337.9
-88828
-1667.71
-73580.6
-165782
-88736.5
-4205.62
-169.381
-101976
-72679.8
-188127
-95584.3
-165215
-582.796
-4176
-101274
-337311
-19904.8
-162123
-69749.9
-90234.1
-1637.82
-9448.33
-72078.7
-212924
-277882
-160486
-26.3126
-57378
-24.7352
-139715
-72845.8
-93596
-9228.02
-242.95
-107909
-4091.52
-231.176
-149269
-158326
-887.444
-42009.3
-173804
-101973
-150019
-869.604
-552364
-134946
-117029
-373237
-28214.5
-2467.24
-156598
-72171.8
-280852
-8827.57
-195484
-64510.7
-2405.17
-120526
1.8994
-108991
-32709.9
-163.364
-119638
-137795
-264290
-6229.09
-105098
-83554.4
-216870
-792.306
-102577
-6074.18
-173436
-202645
-22057.8
-493481
-67645.1
-62135.4
-228468
-113498
-2462.65
-18.736
-19.4307
-96443.7
-13591.2
5.13856
7.19149
-199098
-184778
-88913.6
-236.985
-161075
-95052.2
-307978
-225.678
-449107
-6058.82
-13753.9
-1140.22
-80567
-189042
-162783
-1113.31
-53408.9
-227018
-62819.5
-199850
-179767
-77775.2
-136251
-52205.7
-3358.21
-102750
-30896
-74.538
-213451
-64189
-568089
16.4704
-13384.8
-141250
-3271.49
-166621
-147.483
-571502
-193998
-30322.4
-7855.48
-49024.3
-988.035
-53220.7
-148570
-649269
-7586.73
-116879
-207190
-271220
-346.784
-168220
-86355.8
-346.449
-101.248
-528971
-3303.13
-79191.8
-104.446
-24820.4
-260072
-129802
21.6852
-122095
22.1547
-137599
-551481
-17022.7
-250.278
-40488.7
-258990
-241440
-130896
-42448.6
-244.219
-8237.24
-431636
-1479.92
-44343.6
-17186.4
-207932
-107789
-215774
-1477.13
-340139
-81615.1
-168791
-491.085
-187.44
-247149
-175894
-4569.72
-34478.2
-298969
18.0054
-183854
-32264.8
-237420
-30609.8
-93914.2
-31378.6
-4538.75
-186.93
-17135.2
-282413
-130143
-578421
-433395
-220489
-10033.7
-1389.78
-256847
-157011
-55381.2
-30051.2
-63190.1
-855145
-149107
-196292
-967.453
-966.221
-556.32
-26635
-557.737
-158.399
-9415.96
-19806.9
-224010
-158.485
-4431.91
28.5225
-25502
-887999
-91498.8
-168373
29.0543
-331828
-145952
-28941.3
-403.918
-80809.4
-186151
-18580.9
-320880
-400.763
-428887
-131035
-19734.9
-2081.27
-49896.6
-9931.83
-299499
-10074.7
-108712
-1128
-640185
-2027.5
-17776.1
-662.413
-121114
-198.835
-268961
-637527
-673568
-96904
-5740.32
32.3542
-102697
-230655
-404.833
-3640.21
-5514.74
-28584.4
-30230.9
-13423
-307242
-3835.68
-17983.6
-427804
-56887.6
-373478
-10393.7
-33429.3
-298126
-2138.54
-186181
-74651.1
-11326.1
-355505
-1597.26
-1603.09
-317693
-1084.3
-369641
-1090.01
-278536
-516.738
-521.266
-59.0896
-326554
-27337.3
-61.7521
-10320.8
-251510
-40252.6
-34.5019
-5652.94
-723873
-618299
-55.1678
-156991
-7339.54
-28.3408
-286608
-924.026
-214018
-877.82
-26456.6
-515344
-18899.3
-17026.4
-236856
-45033.6
-3159.48
-44899.7
-387673
-1702.64
-734786
-183715
-171842
-10281.1
-1115.8
-490.592
-2912.83
-44.9751
-380319
-187997
-27.6598
-176643
-3556.99
-1549.46
-14724.3
-356427
-83.243
-7431.51
-6558.79
-121535
-38315.3
-316070
-1114.11
-525446
-2830.62
-89140.1
-5672.56
-858835
-9143.3
-1.0444e+06
-261092
-14001
-20817.4
-3787.6
-26622.2
-22896.2
-1718.8
-3367.99
-1726.94
-1039.82
-30438.4
-1051.62
-464.798
-365.716
-9515.17
-380.72
29.6447
-195700
25.435
-404369
-305.138
-379981
-10016.7
-260.165
-470544
-81988.3
-159.466
-342.305
-1922.29
-6154.19
-379997
-7470.23
-16362.9
-466963
-2636.08
-1721.54
-451080
-121898
-9316.99
-6580.32
-349209
-5112.59
-2890.1
43.8771
-398683
-1413.34
50.3524
-11506.4
-4502.83
-295600
-921.202
-296267
236.104
-3381.52
-10138.9
-14150.2
-9062.86
-321881
-13229
-9132.77
-12762.7
-16635.5
-7190.67
-226542
-1.0726e+06
-22958.5
-18437.3
-99383.3
15.7589
-25439.8
-7550.97
-231297
-38920.6
-21016.8
-301.038
-19152.3
-150583
-6985.06
-38134.8
-11203.1
-145491
-42748.8
-133997
-3283.9
-52852.6
-367634
-47592.2
-68563.3
-60.8391
-15574.1
-7720.18
-24037.3
-29353.1
-9144.91
-321206
-11311.5
-60903.4
-27000.6
-5533.39
-1368.01
-32240.2
-6907.77
-271553
-50945.6
-126159
112.76
-8668.48
3329.88
-29144.8
-2083.81
-8097.15
-48075.7
-214411
-60868.7
-13511.7
-1.54699e+06
-2091.85
-8167.21
-25841.4
-4484.16
-148408
-13593.8
-1649.15
-47598.9
-1.74109e+06
-58509.3
-3328.94
-12455.4
-25715.2
-20263.8
-74946.7
-89600.3
-29586.7
-52029.4
-3342.14
-2256.64
-1633.32
-44972
-44654.9
-11346.3
-59600.1
-140203
-1.34533e+06
-27063
-37643.9
-43737.8
-43917.3
-252389
-74088.3
92.8591
-32485.5
-2464.42
-283919
-35832.4
-391.649
-59709.3
-207907
-33118.7
-40460.3
-229307
-51865.6
-20639.1
-52844.3
-163492
-21781.7
-53736
-2741
-171189
-7268.55
-114123
-64298
-21733.6
197.413
-29051.3
-105720
-27854.7
-59057.4
-756.568
-13620.5
-163728
-51337
-38171.2
-8064.93
-39704.2
-1.72707e+06
-71122.5
-9632.53
-12930.7
201.045
-57383.9
2032.57
-31629.9
-104630
-9375.63
-334.17
-7562.11
-106580
-42576.5
-13194.3
-285380
-6690.38
-410872
-20055.8
-23595.4
-379634
-28561
-44357.9
-3498.66
-2579.16
-2669.72
-157252
-16035.4
-27329.3
-2241.81
-271416
-31134.7
-223009
-29399
-1.64204e+06
-152205
-598.937
-58879.3
-31240
-31530.1
-55.6564
-15910.3
-13498.7
-21730.4
-24740.2
-2.63619e+06
-21774.3
-8.6338
-350.457
-14420
-22145.2
-3831.38
-35963.6
-929.642
-16622.8
-20430.5
-1990.79
-119251
-12771.2
-22277.9
-18874
-2811.89
-5991.27
-4549.59
-4705.01
-16286.8
-11903.4
-2.50692e+06
-5225.72
-24044.8
-3756.45
-2.09551e+06
-21939.9
-7425.57
-2838.12
-13139.5
-7516.59
-21072.7
-2.60168e+06
-10128.2
-2004.5
-9944.52
-18053.9
-1297.37
-3.61155e+06
-14253
-14839.2
-800.111
48.6562
180.44
-3.28501e+06
-30153.5
-30400.8
-28726.5
-26765.8
-469.169
-25285.3
-2.49557e+06
-23389
-21949.9
-20102.9
-2054.56
-18786.5
-17085.4
-2.9232e+06
-15982.9
-4786.17
-14637.6
-13814
-12945.1
-9846.45
-7901.86
-5088.93
-3121.8
-1379.71
-3.69454e+06
-359.94
233.495
227.754
-372.119
-1424.82
-3301.89
-6011.93
-3.80415e+06
-10479.9
-3401.21
-2513.09
-3.37444e+06
-1724.61
-1054.89
-520.203
-149.903
-41.7095
743.822
-799.533
-4.85651e+06
-4927.01
-11841.7
-21559.1
-40514.8
-4.36705e+06
-5090.5
-4490.69
-3961.43
-3494.42
-3032.52
-2609.89
-2209.71
-1833.93
-1491.87
-1158.11
-870.157
-488.006
-323.128
-234.214
536.804
844.186
475.41
-676.95
-2732.37
-5546
-9367.12
-13942.2
-19762.7
-25714.3
-36367.4
-48714.6
VECTORS Displacement float
0 0 0
0 0.0136063 0
0.0201389 0 0
0 0.0268062 0
0.0396668 0 0
0 0.0395769 0
0.0581653 0 0
0 0.0522404 0
0.0627947 0.014822 0
0.0758697 0 0
0 0.0677063 0
0.0589379 0.034769 0
0 0.094849 0
0.0565339 0.0544908 0
0.0896344 0.0131322 0
0.0926411 0 0
0.0539843 0.0894309 0
0.108272 0 0
0.113725 0.0111911 0
0.115049 0.0227077 0
0.122675 0 0
0.114872 0.02898 0
0.11375 0.0358574 0
0.123523 0.0210485 0
0.112084 0.0429944 0
0.110517 0.0502322 0
0.10822 0.0616883 0
0.135387 0 0
0.13123 0.0192826 0
0.134417 0.00866692 0
0.10534 0.0779482 0
0.138435 0.0171943 0
0.13616 0.029347 0
0.134782 0.0384147 0
0.146281 0 0
0.144951 0.0148707 0
0.132619 0.0508606 0
0.147386 0.0228563 0
0.128756 0.075454 0
0.150478 0.00529649 0
0.15073 0.0122659 0
0.154672 0 0
0.155666 0.00933583 0
0.155465 0.0160856 0
0.154266 0.0260746 0
0.154694 0.0278522 0
0.155443 0.0297252 0
0.156468 0.033041 0
0.157209 0.0222604 0
0.157654 0.0396488 0
0.159655 0.00610149 0
0.15855 0.046165 0
0.157845 0.0265521 0
0.158904 0.0346448 0
0.158838 0.0543739 0
0.291734 0.125346 0
0.380335 0.162202 0
0.160195 0.0509692 0
0.160351 0.0372968 0
0.159738 0.0310004 0
0.39525 0.15418 0
0.331577 0.128954 0
0.161542 0.0468548 0
0.159943 0.0267687 0
0.392981 0.144864 0
0.221305 0.0762895 0
0.159958 0.023306 0
0.283855 0.0995875 0
0.15966 0.0183512 0
0.162499 0.0404015 0
0.383436 0.128077 0
0.160688 0.0281558 0
0.390603 0.136233 0
0.16005 0.0202794 0
0.329781 0.105994 0
0.229313 0.0673397 0
0.362719 0.109573 0
0.161912 0.0302321 0
0.384502 0.125318 0
0.163044 0.0354971 0
0.160266 0 0
0.178397 0.0425481 0
0.376035 0.103348 0
0.161518 0.0255796 0
0.380477 0.109236 0
0.197294 0.049333 0
0.320223 0.0880706 0
0.379245 0.111555 0
0.161087 0.00806249 0
0.233635 0.0599862 0
0.163545 0.031039 0
0.378032 0.0970374 0
0.161787 0.0197998 0
0.160262 0.000807004 0
0.272294 0.0684111 0
0.176485 0.0351676 0
0.372445 0.0994418 0
0.365261 0.085017 0
0.162481 0.0208225 0
0.162496 0.0229121 0
0.309998 0.0704035 0
0.373854 0.0886098 0
0.163854 0.0274688 0
0.161898 0.0141394 0
0.163084 0.0243215 0
0.37033 0.088742 0
0.16528 0.0277904 0
0.220017 0.045274 0
0.162587 0.00246631 0
0.339831 0.071439 0
0.167749 0.0285019 0
0.368066 0.0798928 0
0.176671 0.0313362 0
0.364891 0.0858213 0
0.163365 0.0202182 0
0.188953 0.0344804 0
0.164159 0.0239755 0
0.163223 0.016097 0
0.35614 0.0660747 0
0.292851 0.0563356 0
0.365117 0.0696451 0
0.165472 0.0238211 0
0.214899 0.0400682 0
0.362045 0.0695413 0
0.356926 0.0737932 0
0.362058 0.06166 0
0.243964 0.0439174 0
0.172566 0.024563 0
0.164346 0.0205739 0
0.163662 0.0118306 0
0.356082 0.0665986 0
0.164148 0.0169374 0
0.164616 0.0203206 0
0.164341 0.0181107 0
0.163649 0.00964855 0
0.164876 0.0200522 0
0.343792 0.0540143 0
0.35552 0.0606549 0
0.27842 0.0442563 0
0.164363 0.0140874 0
0.358798 0.054835 0
0.165465 0.0197179 0
0.164279 0.0120531 0
0.199556 0.0273409 0
0.1664 0.0195084 0
0.349113 0.0611441 0
0.354639 0.0538922 0
0.309327 0.0437048 0
0.164833 0.0169102 0
0.170238 0.0199068 0
0.164767 0.0135828 0
0.353598 0.0479062 0
0.165019 0.0163432 0
0.176368 0.0206678 0
0.347687 0.0504824 0
0.332265 0.0382241 0
0.257305 0.0314076 0
0.165598 0.0155118 0
0.350529 0.0406431 0
0.341538 0.0503453 0
0.192341 0.0229039 0
0.164993 0.00786618 0
0.164296 -0.00141777 0
0.16518 0.0131665 0
0.164882 0.00491146 0
0.165256 0.0128254 0
0.341081 0.0456565 0
0.165322 0.012476 0
0.346583 0.0392792 0
0.165239 0.00953991 0
0.165296 0.0104617 0
0.344173 0.0342957 0
0.168142 0.0143274 0
0.212522 0.0240753 0
0.340656 0.0414264 0
0.165387 0.0119146 0
0.16546 0.0113432 0
0.163854 -0.00125589 0
0.16539 0.00625849 0
0.34019 0.0362509 0
0.16555 0.0104682 0
0.316895 0.028974 0
0.242634 0.0234653 0
0.333175 0.0386397 0
0.165403 0.00851323 0
0.339922 0.0315681 0
0.165284 0.00234502 0
0.165633 0.00957559 0
0.181545 0.0127913 0
0.1654 0.00338906 0
0.34338 0.0273982 0
0.16546 0.00541685 0
0.165388 0.00783228 0
0.162402 0 0
0.165505 1.22101e-06 0
0.332514 0.0309709 0
0.166497 0.00844724 0
0.273454 0.0210116 0
0.339503 0.025906 0
0.165371 0.00676407 0
0.168212 0.00749093 0
0.338934 0.0206788 0
0.165395 0.00381578 0
0.165292 0.0050989 0
0.325005 0.0281387 0
0.165371 0.00347068 0
0.331888 0.0223071 0
0.165346 0.00312295 0
0.221271 0.0102472 0
0.301388 0.0139355 0
0.165466 -0.00116267 0
0.16545 0.000553653 0
0.324842 0.0246958 0
0.165308 0.00257203 0
0.1752 0.00689484 0
0.165423 0.000926964 0
0.332915 0.0146604 0
0.165258 0.0020106 0
0.324703 0.0214854 0
0.16473 -0.00567457 0
0.165159 0.00113588 0
0.165552 0.0026607 0
0.165398 -0.00268802 0
0.165564 -0.00502663 0
0.324511 0.0174603 0
0.186099 0.0059733 0
0.331366 0.0122776 0
0.165018 0.000237321 0
0.319445 0.00873877 0
0.165076 -0.00185361 0
0.324334 0.0136318 0
0.16481 -0.00111144 0
0.164962 -0.00254431 0
0.165155 -0.00434627 0
0.165202 -0.00597698 0
0.315559 0.0163517 0
0.324137 0.00883814 0
0.208577 0.0043729 0
0.164739 -0.00364576 0
0.164553 -0.00251268 0
0.165095 -0.0076197 0
0.282609 0.00493383 0
0.169536 -0.00131296 0
0.315317 0.0103516 0
0.323937 0.00421643 0
0.324496 0.000601813 0
0.164328 -0.00536231 0
0.16412 -0.00456353 0
0.165085 -0.0101178 0
0.164456 -0.00750591 0
0.235457 0.000196912 0
0.161886 -0.00483439 0
0.164369 -0.00784588 0
0.323263 -0.00152222 0
0.164278 -0.00818901 0
0.315067 0.00310798 0
0.164614 -0.0107953 0
0.164472 -0.00999156 0
0.163718 -0.00663087 0
0.164137 -0.00872633 0
0.163495 -0.0116147 0
0.163581 -0.00798017 0
0.163989 -0.00926966 0
0.306243 0.00527455 0
0.164247 -0.0104691 0
0.163742 -0.0101011 0
0.322306 -0.00681822 0
0.306185 0.00246849 0
0.164203 -0.0126603 0
0.191357 -0.0084764 0
0.163484 -0.0109444 0
0.163765 -0.0100079 0
0.306132 -0.000243087 0
0.314743 -0.00570661 0
0.263565 -0.00891343 0
0.16508 -0.00928877 0
0.163067 -0.012201 0
0.306076 -0.00367562 0
0.164135 -0.015249 0
0.310471 -0.0118319 0
0.162384 -0.0117949 0
0.163353 -0.0140666 0
0.163679 -0.0158353 0
0.162613 -0.0134807 0
0.306007 -0.00702208 0
0.163144 -0.014732 0
0.16346 -0.0155976 0
0.168231 -0.0120453 0
0.16279 -0.0157864 0
0.160749 0 0
0.305902 -0.0112347 0
0.286043 -0.0171227 0
0.16195 -0.01537 0
0.313957 -0.016098 0
0.163311 -0.0177252 0
0.295223 -0.00755381 0
0.162205 -0.0174209 0
0.305756 -0.0153353 0
0.161147 -0.017343 0
0.180321 -0.0154075 0
0.295159 -0.0127496 0
0.161453 -0.0173356 0
0.241625 -0.0196866 0
0.162801 -0.0203246 0
0.162429 -0.0208162 0
0.161888 -0.0205228 0
0.305442 -0.0203858 0
0.161228 -0.0199057 0
0.161761 -0.0208448 0
0.161632 -0.021169 0
0.161923 -0.0218585 0
0.159921 -0.0201408 0
0.161434 -0.0216772 0
0.161229 -0.022191 0
0.299503 -0.0278665 0
0.295044 -0.0191518 0
0.305083 -0.0253596 0
0.160909 -0.022976 0
0.161326 -0.0233947 0
0.161589 -0.0234572 0
0.198573 -0.0209129 0
0.160571 -0.0237743 0
0.161466 -0.0144187 0
0.159516 -0.0236207 0
0.158607 -0.0230413 0
0.160056 -0.024962 0
0.303941 -0.0313571 0
0.284121 -0.0200814 0
0.294792 -0.0270096 0
0.159505 -0.0261779 0
0.160809 -0.0259632 0
0.284121 -0.0225737 0
0.161094 -0.0253445 0
0.159786 -0.0277071 0
0.284108 -0.0250364 0
0.159933 -0.0221859 0
0.168706 -0.0269245 0
0.301445 -0.0367027 0
0.158639 -0.0279383 0
0.16001 -0.0279786 0
0.157048 -0.0270852 0
0.159519 -0.0283242 0
0.284073 -0.0281044 0
0.160175 -0.0276699 0
0.222315 -0.0308023 0
0.159078 -0.0293 0
0.156729 -0.0289872 0
0.294309 -0.0365307 0
0.157712 -0.0297303 0
0.284018 -0.0311323 0
0.158366 -0.0308088 0
0.280971 -0.03941 0
0.283921 -0.0348846 0
0.156074 -0.0310584 0
0.156338 -0.0322295 0
0.15889 -0.0309865 0
0.157219 -0.0330928 0
0.15911 -0.030224 0
0.283794 -0.0385791 0
0.245902 -0.0422509 0
0.154832 -0.0347817 0
0.292557 -0.0474598 0
0.157276 -0.0346439 0
0.271012 -0.0346529 0
0.157131 -0.0349392 0
0.283604 -0.0431204 0
0.157472 -0.0345545 0
0.156983 -0.0352364 0
0.156758 -0.0357019 0
0.1579 -0.0186853 0
0.155415 -0.0364611 0
0.157352 -0.034735 0
0.156527 -0.0361718 0
0.152793 -0.0362125 0
0.270992 -0.0394256 0
0.159188 -0.0362457 0
0.156168 -0.0368884 0
0.283366 -0.0475627 0
0.155797 -0.0376144 0
0.156296 -0.037188 0
0.19978 -0.0434883 0
0.152745 -0.038276 0
0.155231 -0.0386917 0
0.156575 -0.0360971 0
0.155172 0 0
0.270906 -0.0452063 0
0.28292 -0.05286 0
0.156809 -0.0349124 0
0.154638 -0.0397868 0
0.152568 -0.0413056 0
0.264371 -0.0568848 0
0.153761 -0.0413691 0
0.155827 -0.0371803 0
0.150481 -0.0419265 0
0.166223 -0.0428283 0
0.282455 -0.0581165 0
0.27071 -0.0522003 0
0.15283 -0.0429906 0
0.154032 -0.0108941 0
0.154546 -0.0408441 0
0.154052 -0.0419793 0
0.153772 -0.0425411 0
0.153314 -0.0434269 0
0.257726 -0.0491317 0
0.27903 -0.063781 0
0.151466 -0.0452704 0
0.153981 -0.0410056 0
0.257723 -0.0514355 0
0.152587 -0.0447917 0
0.27032 -0.0605684 0
0.147386 -0.0467869 0
0.25771 -0.0537318 0
0.154187 -0.0394158 0
0.150491 -0.0468935 0
0.153482 -0.0317677 0
0.149993 -0.0476191 0
0.151448 -0.0468464 0
0.148023 -0.04812 0
0.257683 -0.0564754 0
0.271292 -0.068389 0
0.18095 -0.0525385 0
0.153316 -0.0226441 0
0.25764 -0.0592072 0
0.147853 -0.0507897 0
0.14966 -0.04987 0
0.257568 -0.0624879 0
0.269654 -0.0704897 0
0.151406 -0.0459488 0
0.144343 -0.0516152 0
0.150981 -0.0472805 0
0.241005 -0.0674034 0
0.150433 -0.0488676 0
0.257474 -0.0657512 0
0.150292 -0.0491374 0
0.150149 -0.0494084 0
0.149928 -0.0498328 0
0.150989 -0.0458792 0
0.149703 -0.0502604 0
0.149356 -0.0509111 0
0.145527 -0.0540086 0
0.151263 -0.0436455 0
0.257323 -0.0696554 0
0.148999 -0.0515691 0
0.146868 -0.0542069 0
0.148459 -0.0525433 0
0.150339 -0.0459823 0
0.200241 -0.0654496 0
0.149052 -0.0508129 0
0.257138 -0.073539 0
0.147897 -0.0535328 0
0.242439 -0.0655395 0
0.265163 -0.0811739 0
0.141594 -0.0570756 0
0.147061 -0.0549572 0
0.141925 -0.0579169 0
0.256881 -0.0781638 0
0.142362 -0.058179 0
0.242421 -0.0699721 0
0.14618 -0.0564076 0
0.161685 -0.0649129 0
0.25657 -0.0827405 0
0.147732 -0.0504618 0
0.144892 -0.0584321 0
0.147063 -0.0532459 0
0.142624 -0.060195 0
0.242346 -0.0751253 0
0.148031 -0.0476236 0
0.146154 -0.0557161 0
0.145892 -0.0562398 0
0.147764 -0.0260861 0
0.143518 -0.0604928 0
0.139062 -0.0624065 0
0.145468 -0.0570614 0
0.255879 -0.0879844 0
0.1448 -0.0583187 0
0.242177 -0.0811772 0
0.146002 0 0
0.216575 -0.0827754 0
0.140595 -0.0647339 0
0.14158 -0.0632743 0
0.143755 -0.0601955 0
0.254981 -0.0931219 0
0.241873 -0.0883262 0
0.142137 -0.0629251 0
0.144646 -0.0398258 0
0.139487 -0.0661136 0
0.143828 -0.0563664 0
0.134871 -0.0676809 0
0.144101 -0.0548576 0
0.226896 -0.0819621 0
0.144532 -0.051283 0
0.136346 -0.0680906 0
0.246148 -0.0969393 0
0.133982 -0.0683971 0
0.226883 -0.0840986 0
0.143768 -0.0538044 0
0.142594 -0.0589906 0
0.226864 -0.0862542 0
0.139658 -0.066779 0
0.241349 -0.0967118 0
0.141528 -0.0619126 0
0.136597 -0.0697954 0
0.226829 -0.0886652 0
0.141406 -0.0621717 0
0.141281 -0.0624313 0
0.143849 -0.073698 0
0.141085 -0.0628365 0
0.226578 -0.0981204 0
0.140885 -0.0632433 0
0.226781 -0.091101 0
0.140576 -0.0638597 0
0.140259 -0.0644794 0
0.13978 -0.0653915 0
0.226713 -0.0938825 0
0.130647 -0.0729215 0
0.139283 -0.06631 0
0.133482 -0.0735151 0
0.226625 -0.0966937 0
0.139848 -0.0630055 0
0.138551 -0.0676215 0
0.135886 -0.0720367 0
0.187161 -0.0915907 0
0.141385 -0.0292019 0
0.140793 -0.0546322 0
0.240308 -0.106394 0
0.140221 -0.0588777 0
0.137783 -0.0689447 0
0.226497 -0.0999331 0
0.136674 -0.0707754 0
0.226337 -0.103201 0
0.135497 -0.0726249 0
0.12789 -0.0778935 0
0.151252 -0.0852183 0
0.137837 -0.0640935 0
0.129475 -0.0780437 0
0.226118 -0.106973 0
0.125507 -0.0793621 0
0.133829 -0.0750949 0
0.136435 -0.067615 0
0.209537 -0.0999089 0
0.1362 -0.068139 0
0.13752 -0.0155091 0
0.227226 -0.113956 0
0.225859 -0.110774 0
0.130301 -0.078874 0
0.135825 -0.0689553 0
0.13524 -0.0701903 0
0.132043 -0.0775776 0
0.13685 -0.0576232 0
0.209522 -0.104043 0
0.129467 -0.0841953 0
0.134338 -0.0720035 0
0.225495 -0.115114 0
0.136005 -0.0625668 0
0.136193 -0.0604127 0
0.125314 -0.082522 0
0.209468 -0.108597 0
0.132964 -0.0745837 0
0.134833 -0.0652211 0
0.129593 -0.080754 0
0.225038 -0.119454 0
0.120399 -0.0856435 0
0.209349 -0.113692 0
0.13089 -0.0781322 0