# vtk DataFile Version 3.0
File generated from DClib
ASCII

DATASET UNSTRUCTURED_GRID
POINTS 1909 float
50 0 0 
48.75 0 0 
50 1.66667 0 
47.5 0 0 
50 3.33333 0 
46.25 0 0 
50 5 0 
45 0 0 
43.75 0 0 
50 6.66667 0 
43 2 0 
42.5 0 0 
50 8.33333 0 
43 4.66667 0 
41.25 0 0 
41.075 2 0 
50 10 0 
40 0 0 
43 7.33333 0 
39.15 2 0 
38.75 0 0 
43 10 0 
37.5 0 0 
37.225 2 0 
36.25 0 0 
36 4 0 
35.3 2 0 
36 5 0 
35 0 0 
35.325 4 0 
36 6 0 
36 7 0 
34.65 4 0 
36 8 0 
33.75 0 0 
33.975 4 0 
36 9 0 
33.375 2 0 
33.3 4 0 
36 10 0 
32.5 0 0 
32.625 4 0 
33 6 0 
31.95 4 0 
33 7.45455 0 
31.45 2 0 
31.25 0 0 
31.95 6 0 
33 8.79545 0 
31.275 4 0 
33 10 0 
30.6 4 0 
30 0 0 
30.9 6 0 
29.925 4 0 
29.525 2 0 
29.85 6 0 
29.25 4 0 
28.75 0 0 
30 8 0 
30 8.45455 0 
28.575 4 0 
29.625 8 0 
30 8.90909 0 
28.8 6 0 
30 9.25 0 
29.782 8.90909 0 
30 9.59091 0 
29.9487 9.59091 0 
29.25 8 0 
29.7462 9.25 0 
30 9.79545 0 
29.897 9.59091 0 
29.564 8.90909 0 
29.9547 9.79545 0 
29.3462 8.45455 0 
29.84 9.59091 0 
30 10 0 
29.8975 9.79545 0 
29.9882 10 0 
29.9902 10.0098 0 
29.7827 9.59091 0 
29.9765 10 0 
29.9804 10.0196 0 
29.9667 10.0098 0 
29.9591 10 0 
29.9686 10.0196 0 
29.9659 10.0341 0 
29.9569 10.0196 0 
29.9418 10 0 
29.9395 10.0196 0 
29.9515 10.0485 0 
29.932 10.0098 0 
29.9424 10.0341 0 
29.8241 9.79545 0 
29.7181 9.59091 0 
29.9166 10 0 
29.9397 10.0485 0 
29.9222 10.0196 0 
29.9279 10.0485 0 
29.9305 10.0695 0 
29.8914 10 0 
29.9077 10.0341 0 
27.9 4 0 
29.897 10.0196 0 
29.9106 10.0485 0 
29.8817 10.0098 0 
29.907 10.0695 0 
29.8933 10.0485 0 
29.9095 10.0905 0 
29.8719 10.0196 0 
27.6 2 0 
29.8556 10 0 
29.8978 10.0905 0 
29.6531 9.59091 0 
29.3437 8.90909 0 
27.5 0 0 
29.8681 10.0485 0 
29.886 10.0905 0 
29.8574 10.0341 0 
29.4839 9.25 0 
29.8723 10.0695 0 
29.7289 9.79545 0 
29.836 10.0196 0 
29.8687 10.0905 0 
29.8197 10 0 
29.8797 10.1203 0 
29.843 10.0485 0 
29.8513 10.0905 0 
29.81 10.0098 0 
29.8561 10.1203 0 
29.8002 10.0196 0 
29.8221 10.0695 0 
29.8072 10.0485 0 
29.8262 10.0905 0 
29.5782 9.59091 0 
29.8498 10.1502 0 
29.7695 10 0 
29.7858 10.0341 0 
29.838 10.1502 0 
29.8215 10.1203 0 
29.8011 10.0905 0 
29.8262 10.1502 0 
29.7714 10.0485 0 
28.875 8 0 
29.75 10.0196 0 
29.8089 10.1502 0 
29.7654 10.0905 0 
29.7193 10 0 
29.7916 10.1502 0 
29.7505 10.0695 0 
29.8079 10.1921 0 
29.7713 10.1203 0 
29.7096 10.0098 0 
29.6047 9.79545 0 
29.503 9.59091 0 
29.7213 10.0485 0 
29.7665 10.1502 0 
29.6999 10.0196 0 
29.7844 10.1921 0 
29.7296 10.0905 0 
29.6856 10.0341 0 
29.7414 10.1502 0 
29.7497 10.1921 0 
29.6503 10 0 
29.7661 10.2339 0 
29.6712 10.0485 0 
29.6999 10.1203 0 
29.7543 10.2339 0 
29.6796 10.0905 0 
29.7057 10.1502 0 
29.7425 10.2339 0 
29.1235 8.90909 0 
29.6309 10.0196 0 
29.6504 10.0695 0 
29.4146 9.59091 0 
29.7252 10.2339 0 
29.6996 10.1921 0 
29.6701 10.1502 0 
29.7079 10.2339 0 
29.6296 10.0905 0 
29.5813 10 0 
29.6023 10.0485 0 
29.5716 10.0098 0 
29.6828 10.2339 0 
29.7086 10.2914 0 
29.2101 9.25 0 
29.562 10.0196 0 
29.6201 10.1502 0 
29.6578 10.2339 0 
29.4428 9.79545 0 
29.5999 10.1203 0 
29.6849 10.2914 0 
29.6283 10.1921 0 
29.5477 10.0341 0 
29.3259 9.59091 0 
29.5608 10.0905 0 
29.5335 10.0485 0 
29.6221 10.2339 0 
29.6503 10.2914 0 
29.5702 10.1502 0 
29.4881 10 0 
29.5128 10.0695 0 
29.6511 10.3489 0 
29.5866 10.2339 0 
29.6392 10.3489 0 
29.4689 10.0196 0 
29.6002 10.2914 0 
29.6273 10.3489 0 
29.4921 10.0905 0 
29.61 10.3489 0 
29.5286 10.1921 0 
29.5016 10.1502 0 
29.5368 10.2339 0 
29.5926 10.3489 0 
29.4405 10.0485 0 
29.2199 9.59091 0 
29.4626 10.1203 0 
29.3949 10 0 
28.9 8.90909 0 
29.5676 10.3489 0 
29.5291 10.2914 0 
29.3853 10.0098 0 
28.6923 8.45455 0 
29.487 10.2339 0 
29.5426 10.3489 0 
29.3758 10.0196 0 
29.5734 10.4266 0 
29.4331 10.1502 0 
29.3993 10.0905 0 
28.5 8 0 
29.3617 10.0341 0 
29.5496 10.4266 0 
29.5071 10.3489 0 
29.2327 9.79545 0 
29.3475 10.0485 0 
29.1136 9.59091 0 
29.4187 10.2339 0 
29.5148 10.4266 0 
29.4716 10.3489 0 
29.3918 10.1921 0 
29.3271 10.0695 0 
29.4298 10.2914 0 
29.2714 10 0 
29.3406 10.1502 0 
28.9208 9.25 0 
29.3066 10.0905 0 
29.4648 10.4266 0 
29.422 10.3489 0 
29.4958 10.5042 0 
29.2524 10.0196 0 
27.75 6 0 
29.3504 10.2339 0 
29.4837 10.5042 0 
29.4718 10.5042 0 
29.2774 10.1203 0 
29.4543 10.5042 0 
29.3724 10.3489 0 
29.2244 10.0485 0 
29.4369 10.5042 0 
29.3938 10.4266 0 
28.9853 9.59091 0 
29.2481 10.1502 0 
28.6766 8.90909 0 
29.4119 10.5042 0 
29.2934 10.2914 0 
27.225 4 0 
29.148 10 0 
29.2582 10.2339 0 
29.1837 10.0905 0 
29.3869 10.5042 0 
29.1385 10.0098 0 
29.3044 10.3489 0 
29.1291 10.0196 0 
29.2072 10.1921 0 
29.3514 10.5042 0 
29.1152 10.0341 0 
29.3929 10.6071 0 
29.2949 10.4266 0 
29.1013 10.0485 0 
29.3686 10.6071 0 
29.316 10.5042 0 
29.2364 10.3489 0 
28.9623 9.79545 0 
29.1257 10.1502 0 
29.1662 10.2339 0 
29.0811 10.0695 0 
28.8566 9.59091 0 
29.3336 10.6071 0 
29.2666 10.5042 0 
29.0609 10.0905 0 
28.9875 10 0 
29.2835 10.6071 0 
29.1448 10.3489 0 
29.0321 10.1203 0 
29.2173 10.5042 0 
29.1098 10.2914 0 
28.125 8 0 
28.9688 10.0196 0 
29.1594 10.4266 0 
28.611 9.25 0 
29.29 10.71 0 
28.4486 8.90909 0 
29.0443 10.2339 0 
29.0033 10.1502 0 
29.2777 10.71 0 
28.9413 10.0485 0 
29.2128 10.6071 0 
29.2655 10.71 0 
29.1497 10.5042 0 
29.2478 10.71 0 
28.7003 9.59091 0 
29.0533 10.3489 0 
29.2303 10.71 0 
28.9629 10.1921 0 
28.9013 10.0905 0 
29.2051 10.71 0 
29.0822 10.5042 0 
29.1801 10.71 0 
28.827 10 0 
29.1144 10.6071 0 
28.8177 10.0098 0 
28.9225 10.2339 0 
28.8085 10.0196 0 
29.1447 10.71 0 
28.7949 10.0341 0 
28.8443 10.1502 0 
28.977 10.4266 0 
28.9322 10.3489 0 
29.1094 10.71 0 
28.7813 10.0485 0 
28.9912 10.5042 0 
29.1562 10.8438 0 
28.5436 9.59091 0 
28.7615 10.0695 0 
28.8669 10.2914 0 
29.1313 10.8438 0 
28.6184 9.79545 0 
29.0602 10.71 0 
28.2207 8.90909 0 
28.7418 10.0905 0 
28.0378 8.45455 0 
28.9798 10.6071 0 
29.0958 10.8438 0 
29.0112 10.71 0 
28.9005 10.5042 0 
28.7136 10.1203 0 
28.7644 10.2339 0 
28.8113 10.3489 0 
29.0454 10.8438 0 
28.6223 10 0 
28.6854 10.1502 0 
28.2746 9.25 0 
28.9441 10.71 0 
28.6042 10.0196 0 
27.75 8 0 
28.9747 10.8438 0 
28.6459 10.1921 0 
28.5773 10.0485 0 
29.0225 10.9775 0 
28.3532 9.59091 0 
28.7804 10.5042 0 
28.736 10.4266 0 
28.8772 10.71 0 
29.0097 10.9775 0 
28.9971 10.9775 0 
28.799 10.6071 0 
28.9791 10.9775 0 
28.5384 10.0905 0 
28.6064 10.2339 0 
28.6543 10.3489 0 
28.9611 10.9775 0 
28.8769 10.8438 0 
27.9867 8.90909 0 
26.25 0 0 
28.9358 10.9775 0 
28.7871 10.71 0 
28.9106 10.9775 0 
28.6607 10.5042 0 
28.4177 10 0 
26.55 4 0 
28.552 10.2914 0 
28.483 10.1502 0 
28.4087 10.0098 0 
28.8751 10.9775 0 
28.3998 10.0196 0 
28.3866 10.0341 0 
28.8399 10.9775 0 
28.6974 10.71 0 
28.3735 10.0485 0 
28.1625 9.59091 0 
28.7436 10.8438 0 
28.4976 10.3489 0 
28.3543 10.0695 0 
28.791 10.9775 0 
28.4052 10.2339 0 
28.3352 10.0905 0 
28.8519 11.1481 0 
28.1869 9.79545 0 
28.5607 10.6071 0 
28.5053 10.5042 0 
28.7423 10.9775 0 
28.8258 11.1481 0 
28.308 10.1203 0 
28.5787 10.71 0 
27.904 9.25 0 
28.7893 11.1481 0 
28.424 10.4266 0 
27.7528 8.90909 0 
28.2807 10.1502 0 
28.6758 10.9775 0 
27.375 8 0 
28.7383 11.1481 0 
28.1619 10 0 
28.5649 10.8438 0 
28.2425 10.1921 0 
28.6096 10.9775 0 
28.1444 10.0196 0 
28.298 10.3489 0 
28.4605 10.71 0 
26.7 6 0 
27.9315 9.59091 0 
28.3503 10.5042 0 
28.6676 11.1481 0 
28.1187 10.0485 0 
28.2042 10.2339 0 
28.5207 10.9775 0 
28.0813 10.0905 0 
28.6814 11.3186 0 
27.3818 8.45455 0 
28.6679 11.3186 0 
28.1516 10.2914 0 
28.5703 11.1481 0 
28.6544 11.3186 0 
28.6358 11.3186 0 
27.5109 8.90909 0 
28.3072 10.71 0 
28.6173 11.3186 0 
28.2524 10.6071 0 
28.4322 10.9775 0 
28.028 10.1502 0 
28.5915 11.3186 0 
28.0989 10.3489 0 
28.33 10.8438 0 
28.5658 11.3186 0 
28.153 10.5042 0 
27.9061 10 0 
27.8975 10.0098 0 
28.5303 11.3186 0 
28.4384 11.1481 0 
27.7002 9.59091 0 
27.889 10.0196 0 
27.8765 10.0341 0 
28.4949 11.3186 0 
28.3154 10.9775 0 
27.9532 10.2339 0 
27.8639 10.0485 0 
28.0276 10.4266 0 
28.1544 10.71 0 
27.8457 10.0695 0 
27.4909 9.25 0 
28.4463 11.3186 0 
27 8 0 
27.8275 10.0905 0 
28.3979 11.3186 0 
27.8015 10.1203 0 
27.6542 9.79545 0 
25.675 2 0 
28.1991 10.9775 0 
27.2691 8.90909 0 
27.9563 10.5042 0 
28.4682 11.5318 0 
28.2625 11.1481 0 
27.7755 10.1502 0 
28.3322 11.3186 0 
27.8502 10.3489 0 
28.4401 11.5318 0 
25.875 4 0 
27.7391 10.1921 0 
28.4019 11.5318 0 
28.0268 10.8438 0 
28.2668 11.3186 0 
27.9602 10.71 0 
28.3498 11.5318 0 
27.4223 9.59091 0 
27.7026 10.2339 0 
27.5927 10 0 
28.0486 10.9775 0 
27.8616 10.6071 0 
27.5762 10.0196 0 
28.1794 11.3186 0 
28.2786 11.5318 0 
27.5519 10.0485 0 
27.6524 10.2914 0 
28.0319 11.1481 0 
27.7108 10.5042 0 
27.5167 10.0905 0 
27.0169 8.90909 0 
28.0924 11.3186 0 
27.6021 10.3489 0 
27.8988 10.9775 0 
28.1818 11.5318 0 
27.7667 10.71 0 
26.625 8 0 
28.255 11.745 0 
27.4664 10.1502 0 
28.2402 11.745 0 
28.2256 11.745 0 
28.2059 11.745 0 
27.978 11.3186 0 
26.7234 8.45455 0 
27.0259 9.25 0 
27.5342 10.4266 0 
28.1863 11.745 0 
27.1442 9.59091 0 
28.0516 11.5318 0 
28.1598 11.745 0 
27.3959 10.2339 0 
28.1334 11.745 0 
27.2793 10 0 
27.2714 10.0098 0 
27.2635 10.0196 0 
27.7086 10.9775 0 
27.6431 10.8438 0 
28.0975 11.745 0 
27.8643 11.3186 0 
27.4661 10.5042 0 
27.2518 10.0341 0 
27.2401 10.0485 0 
28.0617 11.745 0 
26.7648 8.90909 0 
27.5255 10.71 0 
27.7353 11.1481 0 
27.2231 10.0695 0 
28.0133 11.745 0 
27.2061 10.0905 0 
27.8791 11.5318 0 
27.2986 10.3489 0 
27.1818 10.1203 0 
27.9651 11.745 0 
27.3758 10.6071 0 
27.0077 9.79545 0 
27.7174 11.3186 0 
27.1576 10.1502 0 
25 0 0 
27.5193 10.9775 0 
27.9003 11.745 0 
27.1236 10.1921 0 
26.25 8 0 
27.9939 12.0061 0 
25.65 6 0 
27.8359 11.745 0 
26.8136 9.59091 0 
27.0896 10.2339 0 
27.9626 12.0061 0 
27.2853 10.71 0 
25.2 4 0 
27.5713 11.3186 0 
27.9218 12.0061 0 
26.4998 8.90909 0 
27.167 10.5042 0 
27.6541 11.5318 0 
27.0427 10.2914 0 
27.7503 11.745 0 
26.9033 10 0 
27.8677 12.0061 0 
26.8882 10.0196 0 
26.8659 10.0485 0 
26.9958 10.3489 0 
27.2836 10.9775 0 
27.6652 11.745 0 
27.3609 11.1481 0 
27.7955 12.0061 0 
26.499 9.25 0 
[...]
POINT_DATA 1909
SCALARS phi float 1
LOOKUP_TABLE default
VECTORS Displacement float
0 0 0
0 0 0
0 -0.000492425 0
0 0 0
0 -0.000194401 0
0 0 0
0 0.000801733 0
0 0 0
0 0 0
0 0.00241398 0
0.00457141 -0.000223409 0
0 0 0
0 0.00460618 0
0.00877273 0.00155243 0
0 0 0
0.00612531 -0.000225252 0
0 0.00727416 0
0 0 0
0.0116766 0.00518254 0
0.00776328 -0.000256854 0
0 0 0
0.0134176 0.00997391 0
0 0 0
0.00944373 -0.000336061 0
0 0 0
0.0178016 0.00105296 0
0.0110815 -0.000455252 0
0.0212938 0.00238321 0
0 0 0
0.0190515 0.000960142 0
0.0238644 0.00411062 0
0.0256994 0.00610749 0
0.020223 0.00086522 0
0.0270561 0.00822696 0
0 0 0
0.0213714 0.000722174 0
0.02787 0.0104108 0
0.0126021 -0.000605965 0
0.0224614 0.000570209 0
0.0282801 0.012555 0
0 0 0
0.0234947 0.000393227 0
0.0306536 0.00336402 0
0.0244691 0.000205425 0
0.0341326 0.00644149 0
0.0139469 -0.00078478 0
0 0 0
0.0329696 0.00248777 0
0.0360658 0.00996876 0
0.0253799 -6.80083e-07 0
0.0362757 0.0136309 0
0.0262235 -0.000218303 0
0 0 0
0.0348187 0.001715 0
0.0270014 -0.000452268 0
0.0150644 -0.000992868 0
0.0363821 0.000919915 0
0.0277046 -0.000700073 0
0 0 0
0.0428468 0.00366988 0
0.0441161 0.00450437 0
0.0283382 -0.00096305 0
0.0435614 0.00312274 0
0.0453989 0.00544108 0
0.0376852 6.61174e-05 0
0.0462274 0.00631275 0
0.0459398 0.00501562 0
0.0469652 0.00733461 0
0.0471328 0.00710345 0
0.0441998 0.00258891 0
0.0469055 0.00567558 0
0.0473657 0.0080275 0
0.0472802 0.00689554 0
0.046436 0.00458079 0
0.0475221 0.00770974 0
0.0454721 0.0033974 0
0.0474247 0.00668939 0
0.0475685 0.00884209 0
0.0477023 0.00740908 0
0.0476332 0.00873756 0
0.0478651 0.00878492 0
0.0475621 0.00650294 0
0.0477025 0.00864747 0
0.0481106 0.00872678 0
0.0479408 0.00862528 0
0.0478031 0.00853441 0
0.0481251 0.00866078 0
0.0484053 0.00865445 0
0.048154 0.00859584 0
0.047905 0.00843274 0
0.0482103 0.00850233 0
0.0486611 0.00859667 0
0.0480965 0.00842537 0
0.0484313 0.00855173 0
0.047935 0.00712903 0
0.0477163 0.00632309 0
0.048049 0.00829594 0
0.0486688 0.00855419 0
0.0482764 0.00841217 0
0.0486831 0.00850722 0
0.0489899 0.00852567 0
0.0481889 0.0081718 0
0.0485251 0.00838695 0
0.0288898 -0.00124421 0
0.0483822 0.00828555 0
0.0487156 0.00843221 0
0.0483414 0.00817141 0
0.0490054 0.00844325 0
0.0487556 0.00835586 0
0.0492831 0.00845738 0
0.0484901 0.00816668 0
0.0159007 -0.00123389 0
0.0483759 0.00800743 0
0.0492871 0.00842002 0
0.0478716 0.00615912 0
0.0469114 0.00416132 0
0 0 0
0.0488255 0.00824343 0
0.0492951 0.00837997 0
0.0487014 0.00815344 0
0.0474997 0.00507231 0
0.0490593 0.0083059 0
0.0482399 0.00685497 0
0.0486441 0.00800624 0
0.0493131 0.00831778 0
0.0485508 0.0078566 0
0.0496538 0.00836448 0
0.048902 0.00813446 0
0.0493371 0.00825315 0
0.0486729 0.00785888 0
0.049663 0.00829286 0
0.0487936 0.00785847 0
0.049176 0.00810079 0
0.0490184 0.00798431 0
0.0493809 0.00815748 0
0.0480552 0.0059875 0
0.049988 0.00827695 0
0.048774 0.00766732 0
0.0489677 0.00785298 0
0.0499909 0.00824401 0
0.049695 0.00817761 0
0.0494319 0.00806203 0
0.0499958 0.00820977 0
0.049137 0.00784325 0
0.0448208 0.00204724 0
0.0489895 0.00766902 0
0.0500069 0.00815725 0
0.049514 0.00792748 0
0.0489781 0.00748936 0
0.0500218 0.00810296 0
0.0493746 0.00782332 0
0.0504097 0.00816137 0
0.0497696 0.00800272 0
0.0490776 0.00749165 0
0.0486217 0.00654993 0
0.0482421 0.00582195 0
0.0493007 0.00765858 0
0.0500492 0.00802233 0
0.0491766 0.00749236 0
0.0504157 0.00809891 0
0.0496016 0.00779788 0
0.0493196 0.00749023 0
0.0500823 0.00794043 0
0.0504355 0.00800087 0
0.0492306 0.00727286 0
0.0507902 0.00805254 0
0.0494609 0.00748522 0
0.049909 0.00775522 0
0.0507923 0.00802342 0
0.0497295 0.00762297 0
0.0501373 0.00782307 0
0.0507956 0.00799352 0
0.0473507 0.0037482 0
0.0494069 0.0072732 0
0.0496625 0.00747323 0
0.0484613 0.00563318 0
0.0508027 0.00794816 0
0.0504827 0.00785147 0
0.0501984 0.00770686 0
0.0508121 0.00790157 0
0.0498589 0.00745662 0
0.0494594 0.00706236 0
0.0496666 0.00726555 0
0.0495425 0.00706265 0
0.0508294 0.00783229 0
0.0512629 0.00791069 0
0.0480951 0.00451211 0
0.0496255 0.00706201 0
0.0502919 0.00754596 0
0.0508505 0.00776146 0
0.0490807 0.00617407 0
0.0501299 0.00742626 0
0.051267 0.0078547 0
0.0505761 0.00763348 0
0.049745 0.00705918 0
0.0486823 0.00544428 0
0.0500326 0.00723964 0
0.0498637 0.00705449 0
0.0508863 0.00765885 0
0.0512796 0.00776837 0
0.0503896 0.00738956 0
0.0497375 0.0068042 0
0.0500346 0.00704431 0
0.0516877 0.00777484 0
0.0509273 0.00755514 0
0.0516893 0.00774805 0
0.0498857 0.00680021 0
0.0513093 0.00763716 0
0.0516916 0.00772078 0
0.0502029 0.00703072 0
0.0516963 0.00767979 0
0.0507355 0.00733024 0
0.0505276 0.00717953 0
0.0509917 0.00740903 0
0.0517023 0.00763791 0
0.0501055 0.00678906 0
0.0489367 0.00521628 0
0.0504379 0.00700577 0
0.0499898 0.00654603 0
0.0477688 0.0033329 0
0.0517133 0.00757584 0
0.05137 0.00744259 0
0.0500607 0.00654325 0
0.0466317 0.00234868 0
0.0510615 0.0072635 0
0.0517267 0.00751234 0
0.0501315 0.00653987 0
0.052203 0.00759713 0
0.0506663 0.00697531 0
0.0504184 0.00676269 0
0.0453929 0.00148829 0
0.0502334 0.00653381 0
0.052206 0.00754411 0
0.0517496 0.00741988 0
0.0496159 0.00568395 0
0.0503348 0.00652652 0
0.0491884 0.00498429 0
0.051164 0.00706364 0
0.0522142 0.00746368 0
0.0517762 0.00732556 0
0.0509751 0.00692462 0
0.0504811 0.00651368 0
0.0514791 0.00716327 0
0.0502934 0.00622084 0
0.0508489 0.00670712 0
0.0486908 0.0039271 0
0.0506258 0.00649844 0
0.0522329 0.00734247 0
0.0518189 0.00719121 0
0.0526618 0.00742211 0
0.050421 0.00621097 0
0.0387115 -0.000854743 0
0.05127 0.00686608 0
0.052663 0.00739584 0
0.0526647 0.00736928 0
0.0508289 0.0064726 0
0.0526678 0.00732979 0
0.0518663 0.00705503 0
0.0506096 0.00619285 0
0.0526718 0.00728966 0
0.0522716 0.00716228 0
0.0494753 0.00469753 0
0.0510279 0.00644247 0
0.0481648 0.00291057 0
0.0526788 0.00723061 0
0.0516542 0.00677534 0
0.0293654 -0.00153869 0
0.0505707 0.00589062 0
0.0514157 0.0066009 0
0.0508789 0.00615954 0
0.0526873 0.00717039 0
0.0506317 0.00588445 0
0.051938 0.00686541 0
0.0506926 0.00587787 0
0.0512994 0.00639348 0
0.0527018 0.00708289 0
0.0507806 0.0058675 0
0.0532001 0.00719066 0
0.0523433 0.00689972 0
0.0508682 0.00585627 0
0.0532024 0.00713684 0
0.0527187 0.00699351 0
0.0520143 0.00667465 0
0.0502223 0.00503196 0
0.0512522 0.00609874 0
0.0515615 0.00633758 0
0.0509943 0.00583845 0
0.0497528 0.00440416 0
0.0532078 0.00705669 0
0.0527461 0.00686575 0
0.0511193 0.00581891 0
0.0509001 0.00546704 0
0.0532198 0.00693761 0
0.0521228 0.00641467 0
0.0512951 0.00578812 0
0.0527771 0.00673537 0
0.051907 0.00625072 0
0.0459325 0.000905147 0
0.0510108 0.00545082 0
0.0524641 0.00652659 0
0.0492773 0.00328197 0
0.0536709 0.00695604 0
0.0485417 0.00247077 0
0.0517503 0.0059906 0
0.0514679 0.00575411 0
0.0536718 0.00692842 0
0.0511735 0.00542437 0
0.0532441 0.006762 0
0.053673 0.00690064 0
0.0528246 0.00655257 0
0.0536752 0.00685995 0
0.050066 0.00403913 0
0.0522342 0.00615384 0
0.0536778 0.00681884 0
0.0517046 0.00570119 0
0.0514059 0.00538095 0
0.0536824 0.006759 0
0.0528766 0.00636664 0
0.0536878 0.0066983 0
0.0512014 0.00503511 0
0.0532898 0.00650622 0
0.0512538 0.00502562 0
0.0519347 0.00564265 0
0.051306 0.00501584 0
0.0536969 0.00661075 0
0.0513821 0.00500093 0
0.0517288 0.00530917 0
0.0526484 0.00600975 0
0.0523833 0.00580569 0
0.0537075 0.00652164 0
0.0514576 0.00498539 0
0.0529522 0.00611119 0
0.0541982 0.00664342 0
0.0503614 0.00366576 0
0.0515664 0.00496176 0
0.0522399 0.00555354 0
0.0542 0.00658505 0
0.0508851 0.00416772 0
0.0537247 0.00639474 0
0.0488915 0.00201993 0
0.0516741 0.00493686 0
0.0475867 0.00120966 0
0.0533688 0.0061401 0
0.0542038 0.00650001 0
0.0537442 0.00626532 0
0.0530316 0.0058524 0
0.0518256 0.0048992 0
0.0521622 0.0051906 0
0.0525315 0.00545546 0
0.0542115 0.00637597 0
0.051551 0.00448094 0
0.0519748 0.00485907 0
0.0498432 0.00255306 0
0.0537743 0.0060839 0
0.0516464 0.00445845 0
0.04641 0.000305665 0
0.0542267 0.00619577 0
0.0521795 0.00479882 0
0.0517861 0.00442339 0
0.0546435 0.00631937 0
0.0506894 0.00320216 0
0.0531409 0.00550413 0
0.0529041 0.00531028 0
0.0538076 0.00589886 0
0.0546442 0.00628847 0
0.0546452 0.00625753 0
0.0534942 0.00562709 0
0.0546467 0.00621311 0
0.0519854 0.00436873 0
0.052379 0.00473408 0
0.0527189 0.00499704 0
0.0546485 0.00616847 0
0.0542547 0.00593605 0
0.04922 0.00154705 0
0 0 0
0.0546515 0.00610445 0
0.0538568 0.00564417 0
0.054655 0.00603986 0
0.0532517 0.00515202 0
0.0518667 0.00391683 0
0.0297514 -0.0018583 0
0.0526446 0.00463798 0
0.0522622 0.00428323 0
0.0519113 0.0039042 0
0.0546607 0.00594779 0
0.0519557 0.00389135 0
0.0520206 0.003872 0
0.0546672 0.00585458 0
0.0539094 0.00538487 0
0.0520851 0.00385219 0
0.0509895 0.00272926 0
0.0543036 0.00556629 0
0.0528997 0.00453425 0
0.0521778 0.00382261 0
0.0546775 0.00572302 0
0.0526347 0.00414925 0
0.0522696 0.00379205 0
0.0551075 0.00588775 0
0.0515718 0.00304067 0
0.0536756 0.00492482 0
0.053395 0.00468822 0
0.0546892 0.00558943 0
0.0551089 0.00582071 0
0.0523987 0.00374681 0
0.053983 0.00503496 0
0.0503752 0.00171913 0
0.0551117 0.00572565 0
0.0532273 0.00438286 0
0.0495155 0.00106279 0
0.0525258 0.00369964 0
0.0547072 0.00540328 0
0.0468327 -0.000312548 0
0.0551167 0.00559011 0
0.0522181 0.00320285 0
0.0543823 0.00504849 0
0.0527002 0.00363039 0
0.0547271 0.00521393 0
0.052299 0.00317431 0
0.0531156 0.00393979 0
0.0540586 0.00467975 0
0.0394409 -0.00184873 0
0.0513127 0.00214646 0
0.0535349 0.00421949 0
0.0551258 0.00539693 0
0.052417 0.00313077 0
0.0528704 0.0035575 0
0.0547564 0.0049542 0
0.0525853 0.00306462 0
0.0554705 0.00543359 0
0.0483461 2.59584e-06 0
0.0554711 0.00539714 0
0.0530973 0.00345149 0
0.0551421 0.00512298 0
0.0554719 0.00536075 0
0.055473 0.00530991 0
0.049787 0.000552435 0
0.0541581 0.00421044 0
0.0554742 0.00525901 0
0.0539126 0.00398619 0
0.0547878 0.00468996 0
0.0528189 0.00296434 0
0.0554762 0.00518752 0
0.0533157 0.00333908 0
0.0544986 0.00433802 0
0.0554783 0.00511572 0
0.0537043 0.00361541 0
0.0525241 0.00247893 0
0.0525614 0.00246331 0
0.0554817 0.00501502 0
0.0551695 0.00473797 0
0.0515963 0.00155418 0
0.0525984 0.00244752 0
0.0526528 0.00242391 0
0.0554854 0.00491359 0
0.0548319 0.00433402 0
0.0531331 0.00281243 0
0.0527067 0.00239993 0
0.0535968 0.00317755 0
0.0542558 0.00373534 0
0.0527842 0.0023645 0
0.0508556 0.000757994 0
0.0554912 0.00477225 0
0.0471881 -0.000946016 0
0.0528609 0.00232827 0
0.0554975 0.0046295 0
0.0529687 0.00227531 0
0.0522242 0.00160378 0
0.0163932 -0.00151062 0
0.0548773 0.00397246 0
0.050022 3.21119e-05 0
0.0538618 0.00300542 0
0.0557969 0.00483316 0
0.055213 0.00420388 0
0.0530748 0.00222078 0
0.055507 0.00443259 0
0.0535392 0.00258264 0
0.0557981 0.00475213 0
0.0300521 -0.00218696 0
0.0532203 0.00214184 0
0.0558001 0.00464113 0
0.0546527 0.00338573 0
0.0555172 0.0042333 0
0.0543751 0.00312166 0
0.0558031 0.0044872 0
0.0518852 0.000832593 0
0.0533622 0.00205992 0
0.0528406 0.00158163 0
0.0549369 0.00349514 0
0.054188 0.00276196 0
0.0529075 0.00154733 0
0.0555319 0.00396205 0
0.0558081 0.00427284 0
0.0530051 0.00149556 0
0.0535513 0.0019425 0
0.0552761 0.00347551 0
0.0540375 0.00223663 0
0.053144 0.0014181 0
0.0502299 -0.00051891 0
0.0555473 0.00368721 0
0.0537334 0.00181968 0
0.0549951 0.00301167 0
0.055816 0.00397483 0
0.0544854 0.00250211 0
0.047484 -0.00159817 0
0.0559991 0.00419522 0
0.0533365 0.00130284 0
0.0559996 0.00415009 0
0.0560002 0.00410509 0
0.056001 0.00404449 0
0.0555682 0.00331912 0
0.0488893 -0.00127175 0
0.0512597 -0.000354098 0
0.0539676 0.00164556 0
0.0560018 0.00398395 0
0.0521206 0.000102247 0
0.0558281 0.00356321 0
0.0560029 0.00390129 0
0.0535948 0.00113205 0
0.0560041 0.00381854 0
0.0530942 0.00067605 0
0.0531246 0.000657611 0
0.0531548 0.000639031 0
0.055065 0.00238732 0
0.0548301 0.00214163 0
0.0560058 0.00370501 0
0.0555891 0.00294627 0
0.0541885 0.00146221 0
0.0531992 0.000611378 0
0.0532432 0.00058342 0
0.0560075 0.00359112 0
0.0503993 -0.00107804 0
0.054607 0.00172056 0
0.0553565 0.00250285 0
0.0533064 0.000542341 0
0.0560099 0.00343513 0
0.0533688 0.000500625 0
0.0558453 0.00300056 0
0.053928 0.000879806 0
0.0534565 0.000440083 0
0.0560122 0.00327835 0
0.0544602 0.00120562 0
0.0527538 -0.000181544 0
0.0556151 0.00245618 0
0.0535427 0.000378262 0
0 0 0
0.0551273 0.00175723 0
0.0560154 0.00306509 0
0.0536607 0.000289578 0
0.0477091 -0.00226441 0
0.0560915 0.00336233 0
0.039855 -0.00292082 0
0.0560185 0.00285035 0
0.0523341 -0.000774405 0
0.0537756 0.00019843 0
0.0560926 0.00325972 0
0.0547077 0.000934196 0
0.0302544 -0.00255105 0
0.0556387 0.0019607 0
0.0560938 0.00312491 0
0.0505374 -0.00167323 0
0.0543356 0.000508701 0
0.0558664 0.00224252 0
0.0539284 6.91236e-05 0
0.0560223 0.00256141 0
0.0533191 -0.000419543 0
0.0560953 0.00294435 0
0.0533732 -0.000459225 0
0.0534517 -0.000518697 0
0.0540751 -6.47155e-05 0
0.055192 0.000962612 0
0.0560255 0.00227015 0
0.0554403 0.00123539 0
0.056097 0.00269999 0
0.0515523 -0.00164148 0
0.0535632 -0.000606894 0
0.0549936 0.000560348 0
0.0556639 0.0013229 0
0.0542634 -0.00025246 0
0.0560986 0.00236836 0
0.0560286 0.0018837 0
0.0537173 -0.000736557 0
0.0547989 -3.37348e-05 0
0.0506354 -0.00227472 0
0.0492083 -0.00260579 0
0.0524775 -0.00165801 0
0.0558855 0.00123996 0
0.0544403 -0.000448129 0
0.047871 -0.00294626 0
0.0560349 0.0024723 0
0.0539232 -0.00092585 0
0.0560301 0.00149411 0
0.0560353 0.00241392 0
0.056099 0.00191968 0
0.0552387 0.000164052 0
0.0560358 0.00235575 0
0.0556815 0.000680256 0
0.0560362 0.00228081 0
0.0560366 0.00220605 0
0.056037 0.00210763 0
0.0534591 -0.00151958 0
0.0546568 -0.000719266 0
0.0534832 -0.00154059 0
0.0535071 -0.00156172 0
0.0560373 0.00200932 0
0.0535424 -0.00159309 0
0.0541871 -0.00120064 0
0.0560292 0.00098585 0
0.0535773 -0.0016247 0
0.0560375 0.00187831 0
0.0536273 -0.00167098 0
0.0560961 0.00131753 0
0.0560375 0.00174726 0
0.0536767 -0.00171778 0
0.053746 -0.00178537 0
0.0506964 -0.00291817 0
0.0548529 -0.0010035 0
0.0560371 0.00157191 0
0.0554937 -0.00037157 0
0.0556912 -0.000128187 0
0.0538138 -0.001854 0
0.0560244 0.000474066 0
0.0560362 0.00139631 0
0.0552687 -0.000818124 0
0.0530413 -0.0023389 0
0.0539065 -0.00195185 0
0.0558866 -5.65882e-05 0
0.054507 -0.00159748 0
0.0560345 0.00116186 0
0.0525636 -0.00269968 0
0.0539964 -0.00205174 0
0.0479609 -0.00364025 0
0.0560848 0.000519272 0
0.0303591 -0.00291458 0
0.0560319 0.000926843 0
0.0550769 -0.0013918 0
0.0516859 -0.00312682 0
0.0541155 -0.00219239 0
0.0560118 -0.000180669 0
0.0557818 0.00132982 0
0.0556849 -0.000939198 0
0.0560272 0.000615383 0
0.0557826 0.00119468 0
0.0542293 -0.00233683 0
0.0507153 -0.0035663 0
0.0557832 0.0010254 0
0.0535194 -0.00281643 0
0.0535619 -0.00286085 0
0.0560209 0.000302978 0
0.0552661 -0.00180045 0
0.0548652 -0.00216709 0
0.0557832 0.000807932 0
0.0536235 -0.00292715 0
0.0543745 -0.00253775 0
0.055991 -0.000838208 0
0.0537105 -0.00302489 0
0.049305 -0.00399005 0
0.0560552 -0.000521767 0
0.055782 0.000523796 0
0.0560104 -0.000106325 0
0.0545098 -0.00274538 0
0.0538302 -0.00316743 0
0.0399389 -0.00407562 0
0.0556531 -0.00193452 0
0.052561 -0.00374508 0
0.0557781 0.000149371 0
0.0558377 -0.00169024 0
0.0479872 -0.00434631 0
0.0559969 -0.000516837 0
0.0554572 -0.00234938 0
0.053989 -0.00337337 0
0.0546737 -0.00303061 0
0.0506899 -0.00426239 0
0.0559524 -0.00166121 0
0.0557692 -0.00034468 0
0 0 0
0.0559751 -0.00104674 0
0.0552172 -0.0029775 0
0.0553592 0.000107111 0
0.0541904 -0.00366856 0
0.05482 -0.00332712 0
0.0553595 2.90563e-05 0
0.0553598 -4.87565e-05 0
0.0164718 -0.00181873 0
0.0534709 -0.00411068 0
0.0553598 -0.000144121 0
0.0559885 -0.00185203 0
0.0534896 -0.00413389 0
0.0535081 -0.00415719 0
0.0553597 -0.000239242 0
0.0555926 -0.0029279 0
0.0535354 -0.00419172 0
0.0557507 -0.00099351 0
0.055948 -0.00157766 0
0.0553593 -0.000359059 0
0.0535623 -0.00422644 0
0.0558984 -0.00248445 0
0.053601 -0.00427715 0
0.0553586 -0.000478636 0
0.0536391 -0.00432829 0
0.0549837 -0.00372891 0
0.0553574 -0.000632163 0
0.0544305 -0.00408868 0
0.0536923 -0.00440189 0
0.0516011 -0.00482771 0
0.0303535 -0.00332661 0
0.0553556 -0.000785461 0
0.0506198 -0.00496163 0
0.0537443 -0.00447634 0
0.047943 -0.0050619 0
0.0553527 -0.000984452 0
0.0538149 -0.00458203 0
0.0559059 -0.00225088 0
0.0524597 -0.00495184 0
0.052946 -0.00486877 0
0.055349 -0.00118323 0
0.0538832 -0.00468938 0
0.0557147 -0.00183731 0
0.0551174 -0.00414853 0
0.055343 -0.00144216 0
0.0556858 -0.00368975 0
0.0539729 -0.00483971 0
0.0558103 -0.0034905 0
0.0491857 -0.00541598 0
0.0546918 -0.00468234 0
0.0554803 -0.00411555 0
0.0553356 -0.00170088 0
0.0540581 -0.00499316 0
0.0558547 -0.00292389 0
0.0558534 -0.00351121 0
0.0553241 -0.00203697 0
0.0541655 -0.00520521 0
0.0552447 -0.00470823 0
0.0504962 -0.00571429 0
0.0546507 -0.0014284 0
0.0556484 -0.0029191 0
0.0532874 -0.00559536 0
0.0553104 -0.00237274 0
0.0546513 -0.00161078 0
0.0533204 -0.00564358 0
0.0542644 -0.00542284 0
0.0533677 -0.00571533 0
0.0478373 -0.00578665 0
0.0546511 -0.00182819 0
0.0557776 -0.00375998 0
0.0556965 -0.00449179 0
0.0534344 -0.00582068 0
0.0552894 -0.00280548 0
0.0546495 -0.0020947 0
0.054382 -0.00571964 0
0.0549335 -0.00551401 0
0.0535255 -0.00597347 0
0.052252 -0.00615676 0
0.0553235 -0.00529427 0
0.0546453 -0.00242872 0
0.0552646 -0.00323757 0
0.0536451 -0.00619257 0
0.0544845 -0.00602587 0
0.0556855 -0.00459292 0
0.0546366 -0.0028534 0
0.0503254 -0.00646836 0
0.055531 -0.0042807 0
0.0552275 -0.00378775 0
0.0537946 -0.00650367 0
0.0302368 -0.00371864 0
0.0396817 -0.00531534 0
0.0555251 -0.00568443 0
0.0545947 -0.00643773 0
0.0512289 -0.00675203 0
0.0546197 -0.00339703 0
0.0556022 -0.00552428 0
0.0553557 -0.00606147 0
0.0476657 -0.00651772 0
0.0551843 -0.00433638 0
0.0539685 -0.00694137 0
0.055552 -0.00560437 0
0.0529746 -0.00706561 0
0.0537654 -0.00306583 0
0.0529888 -0.00709048 0
0.0530029 -0.00711541 0
0.054679 -0.00686468 0
0.0488583 -0.00687617 0
0.0537656 -0.00317173 0
0.0550812 -0.00666532 0
0.0530238 -0.00715231 0
0.0545891 -0.00409281 0
0.0530445 -0.00718937 0
0.0537655 -0.0032774 0
0.0530741 -0.00724338 0
0.053765 -0.00340056 0
0.0531033 -0.00729773 0
0.0551212 -0.00502409 0
0.0537642 -0.00352347 0
0.0531438 -0.00737577 0
0.0537629 -0.00367095 0
0.0531833 -0.00745451 0
0.0500894 -0.00728002 0
0.053761 -0.00381813 0
0.0519042 -0.00751448 0
0.0553151 -0.00686467 0
0.0532367 -0.0075659 0
0.0553316 -0.00595662 0
0.0537581 -0.00399898 0
0.0541493 -0.00755183 0
0.0532879 -0.00767865 0
0.0547491 -0.00743006 0
0.0545352 -0.00497778 0
0.0537546 -0.00417943 0
0.0550484 -0.00570839 0
0.0553952 -0.00660735 0
0.0523268 -0.00773852 0
0 0 0
0.0533547 -0.00783587 0
0.0537491 -0.00440495 0
0.0474367 -0.00725546 0
0.0534174 -0.00799561 0
0.0537426 -0.00462994 0
0.0537328 -0.0049139 0
0.0534955 -0.00821521 0
0.0547775 -0.00801793 0
0.0549449 -0.00655026 0
0.0537214 -0.00519708 0
0.0544438 -0.00609055 0
0.053566 -0.00843933 0
0.0542994 -0.00839513 0
0.0551701 -0.00789336 0
0.0498053 -0.00809047 0
0.0537045 -0.00555552 0
0.0551762 -0.00779543 0
0.0550183 -0.00823267 0
0.0299929 -0.00417032 0
0.0536478 -0.00874312 0
0.0524783 -0.0087031 0
0.0536848 -0.00591272 0
0.0525043 -0.00875385 0
0.0548265 -0.00738524 0
0.0525412 -0.00882923 0
0.0525191 -0.0050663 0
0.054755 -0.00878255 0
0.055007 -0.0079666 0
0.0525929 -0.0089396 0
0.0537163 -0.00905458 0
0.0536563 -0.00636345 0
0.0525195 -0.00531315 0
0.0514383 -0.00886035 0
0.0471496 -0.00799549 0
0.0526629 -0.00909901 0
0.0525184 -0.00559383 0
0.0483321 -0.00836309 0
0.0542936 -0.00746744 0
0.0504993 -0.00889149 0
0.0536235 -0.00681213 0
0.052754 -0.00932635 0
0.0537854 -0.00947065 0
0.0525148 -0.00592166 0
0.0549237 -0.00896703 0
0.0543518 -0.00954632 0
0.0546626 -0.00839079 0
0.0525075 -0.00631394 0
0.052866 -0.0096468 0
0.0494423 -0.00896028 0
0.054669 -0.00957807 0
0.0535764 -0.0073736 0
0.0538321 -0.00989901 0
0.0390745 -0.00662802 0
0.052494 -0.00679232 0
0.0535229 -0.0079316 0
0.0529926 -0.0100936 0
0.0160775 -0.00213837 0
0.0544775 -0.00938382 0
0.0524705 -0.00738291 0
0.04681 -0.00873877 0
0.053859 -0.0104623 0
0.0540551 -0.00913689 0
0.0534475 -0.00862111 0
0.0545843 -0.0103183 0