# vtk DataFile Version 3.0
File generated from DClib
ASCII

DATASET UNSTRUCTURED_GRID
POINTS 1909 float
50 0 0 
48.75 0 0 
50 1.66667 0 
47.5 0 0 
50 3.33333 0 
46.25 0 0 
50 5 0 
45 0 0 
43.75 0 0 
50 6.66667 0 
43 2 0 
42.5 0 0 
50 8.33333 0 
43 4.66667 0 
41.25 0 0 
41.075 2 0 
50 10 0 
40 0 0 
43 7.33333 0 
39.15 2 0 
38.75 0 0 
43 10 0 
37.5 0 0 
37.225 2 0 
36.25 0 0 
36 4 0 
35.3 2 0 
36 5 0 
35 0 0 
35.325 4 0 
36 6 0 
36 7 0 
34.65 4 0 
36 8 0 
33.75 0 0 
33.975 4 0 
36 9 0 
33.375 2 0 
33.3 4 0 
36 10 0 
32.5 0 0 
32.625 4 0 
33 6 0 
31.95 4 0 
33 7.45455 0 
31.45 2 0 
31.25 0 0 
31.95 6 0 
33 8.79545 0 
31.275 4 0 
33 10 0 
30.6 4 0 
30 0 0 
30.9 6 0 
29.925 4 0 
29.525 2 0 
29.85 6 0 
29.25 4 0 
28.75 0 0 
30 8 0 
30 8.45455 0 
28.575 4 0 
29.625 8 0 
30 8.90909 0 
28.8 6 0 
30 9.25 0 
29.782 8.90909 0 
30 9.59091 0 
29.9487 9.59091 0 
29.25 8 0 
29.7462 9.25 0 
30 9.79545 0 
29.897 9.59091 0 
29.564 8.90909 0 
29.9547 9.79545 0 
29.3462 8.45455 0 
29.84 9.59091 0 
30 10 0 
29.8975 9.79545 0 
29.9882 10 0 
29.9902 10.0098 0 
29.7827 9.59091 0 
29.9765 10 0 
29.9804 10.0196 0 
29.9667 10.0098 0 
29.9591 10 0 
29.9686 10.0196 0 
29.9659 10.0341 0 
29.9569 10.0196 0 
29.9418 10 0 
29.9395 10.0196 0 
29.9515 10.0485 0 
29.932 10.0098 0 
29.9424 10.0341 0 
29.8241 9.79545 0 
29.7181 9.59091 0 
29.9166 10 0 
29.9397 10.0485 0 
29.9222 10.0196 0 
29.9279 10.0485 0 
29.9305 10.0695 0 
29.8914 10 0 
29.9077 10.0341 0 
27.9 4 0 
29.897 10.0196 0 
29.9106 10.0485 0 
29.8817 10.0098 0 
29.907 10.0695 0 
29.8933 10.0485 0 
29.9095 10.0905 0 
29.8719 10.0196 0 
27.6 2 0 
29.8556 10 0 
29.8978 10.0905 0 
29.6531 9.59091 0 
29.3437 8.90909 0 
27.5 0 0 
29.8681 10.0485 0 
29.886 10.0905 0 
29.8574 10.0341 0 
29.4839 9.25 0 
29.8723 10.0695 0 
29.7289 9.79545 0 
29.836 10.0196 0 
29.8687 10.0905 0 
29.8197 10 0 
29.8797 10.1203 0 
29.843 10.0485 0 
29.8513 10.0905 0 
29.81 10.0098 0 
29.8561 10.1203 0 
29.8002 10.0196 0 
29.8221 10.0695 0 
29.8072 10.0485 0 
29.8262 10.0905 0 
29.5782 9.59091 0 
29.8498 10.1502 0 
29.7695 10 0 
29.7858 10.0341 0 
29.838 10.1502 0 
29.8215 10.1203 0 
29.8011 10.0905 0 
29.8262 10.1502 0 
29.7714 10.0485 0 
28.875 8 0 
29.75 10.0196 0 
29.8089 10.1502 0 
29.7654 10.0905 0 
29.7193 10 0 
29.7916 10.1502 0 
29.7505 10.0695 0 
29.8079 10.1921 0 
29.7713 10.1203 0 
29.7096 10.0098 0 
29.6047 9.79545 0 
29.503 9.59091 0 
29.7213 10.0485 0 
29.7665 10.1502 0 
29.6999 10.0196 0 
29.7844 10.1921 0 
29.7296 10.0905 0 
29.6856 10.0341 0 
29.7414 10.1502 0 
29.7497 10.1921 0 
29.6503 10 0 
29.7661 10.2339 0 
29.6712 10.0485 0 
29.6999 10.1203 0 
29.7543 10.2339 0 
29.6796 10.0905 0 
29.7057 10.1502 0 
29.7425 10.2339 0 
29.1235 8.90909 0 
29.6309 10.0196 0 
29.6504 10.0695 0 
29.4146 9.59091 0 
29.7252 10.2339 0 
29.6996 10.1921 0 
29.6701 10.1502 0 
29.7079 10.2339 0 
29.6296 10.0905 0 
29.5813 10 0 
29.6023 10.0485 0 
29.5716 10.0098 0 
29.6828 10.2339 0 
29.7086 10.2914 0 
29.2101 9.25 0 
29.562 10.0196 0 
29.6201 10.1502 0 
29.6578 10.2339 0 
29.4428 9.79545 0 
29.5999 10.1203 0 
29.6849 10.2914 0 
29.6283 10.1921 0 
29.5477 10.0341 0 
29.3259 9.59091 0 
29.5608 10.0905 0 
29.5335 10.0485 0 
29.6221 10.2339 0 
29.6503 10.2914 0 
29.5702 10.1502 0 
29.4881 10 0 
29.5128 10.0695 0 
29.6511 10.3489 0 
29.5866 10.2339 0 
29.6392 10.3489 0 
29.4689 10.0196 0 
29.6002 10.2914 0 
29.6273 10.3489 0 
29.4921 10.0905 0 
29.61 10.3489 0 
29.5286 10.1921 0 
29.5016 10.1502 0 
29.5368 10.2339 0 
29.5926 10.3489 0 
29.4405 10.0485 0 
29.2199 9.59091 0 
29.4626 10.1203 0 
29.3949 10 0 
28.9 8.90909 0 
29.5676 10.3489 0 
29.5291 10.2914 0 
29.3853 10.0098 0 
28.6923 8.45455 0 
29.487 10.2339 0 
29.5426 10.3489 0 
29.3758 10.0196 0 
29.5734 10.4266 0 
29.4331 10.1502 0 
29.3993 10.0905 0 
28.5 8 0 
29.3617 10.0341 0 
29.5496 10.4266 0 
29.5071 10.3489 0 
29.2327 9.79545 0 
29.3475 10.0485 0 
29.1136 9.59091 0 
29.4187 10.2339 0 
29.5148 10.4266 0 
29.4716 10.3489 0 
29.3918 10.1921 0 
29.3271 10.0695 0 
29.4298 10.2914 0 
29.2714 10 0 
29.3406 10.1502 0 
28.9208 9.25 0 
29.3066 10.0905 0 
29.4648 10.4266 0 
29.422 10.3489 0 
29.4958 10.5042 0 
29.2524 10.0196 0 
27.75 6 0 
29.3504 10.2339 0 
29.4837 10.5042 0 
29.4718 10.5042 0 
29.2774 10.1203 0 
29.4543 10.5042 0 
29.3724 10.3489 0 
29.2244 10.0485 0 
29.4369 10.5042 0 
29.3938 10.4266 0 
28.9853 9.59091 0 
29.2481 10.1502 0 
28.6766 8.90909 0 
29.4119 10.5042 0 
29.2934 10.2914 0 
27.225 4 0 
29.148 10 0 
29.2582 10.2339 0 
29.1837 10.0905 0 
29.3869 10.5042 0 
29.1385 10.0098 0 
29.3044 10.3489 0 
29.1291 10.0196 0 
29.2072 10.1921 0 
29.3514 10.5042 0 
29.1152 10.0341 0 
29.3929 10.6071 0 
29.2949 10.4266 0 
29.1013 10.0485 0 
29.3686 10.6071 0 
29.316 10.5042 0 
29.2364 10.3489 0 
28.9623 9.79545 0 
29.1257 10.1502 0 
29.1662 10.2339 0 
29.0811 10.0695 0 
28.8566 9.59091 0 
29.3336 10.6071 0 
29.2666 10.5042 0 
29.0609 10.0905 0 
28.9875 10 0 
29.2835 10.6071 0 
29.1448 10.3489 0 
29.0321 10.1203 0 
29.2173 10.5042 0 
29.1098 10.2914 0 
28.125 8 0 
28.9688 10.0196 0 
29.1594 10.4266 0 
28.611 9.25 0 
29.29 10.71 0 
28.4486 8.90909 0 
29.0443 10.2339 0 
29.0033 10.1502 0 
29.2777 10.71 0 
28.9413 10.0485 0 
29.2128 10.6071 0 
29.2655 10.71 0 
29.1497 10.5042 0 
29.2478 10.71 0 
28.7003 9.59091 0 
29.0533 10.3489 0 
29.2303 10.71 0 
28.9629 10.1921 0 
28.9013 10.0905 0 
29.2051 10.71 0 
29.0822 10.5042 0 
29.1801 10.71 0 
28.827 10 0 
29.1144 10.6071 0 
28.8177 10.0098 0 
28.9225 10.2339 0 
28.8085 10.0196 0 
29.1447 10.71 0 
28.7949 10.0341 0 
28.8443 10.1502 0 
28.977 10.4266 0 
28.9322 10.3489 0 
29.1094 10.71 0 
28.7813 10.0485 0 
28.9912 10.5042 0 
29.1562 10.8438 0 
28.5436 9.59091 0 
28.7615 10.0695 0 
28.8669 10.2914 0 
29.1313 10.8438 0 
28.6184 9.79545 0 
29.0602 10.71 0 
28.2207 8.90909 0 
28.7418 10.0905 0 
28.0378 8.45455 0 
28.9798 10.6071 0 
29.0958 10.8438 0 
29.0112 10.71 0 
28.9005 10.5042 0 
28.7136 10.1203 0 
28.7644 10.2339 0 
28.8113 10.3489 0 
29.0454 10.8438 0 
28.6223 10 0 
28.6854 10.1502 0 
28.2746 9.25 0 
28.9441 10.71 0 
28.6042 10.0196 0 
27.75 8 0 
28.9747 10.8438 0 
28.6459 10.1921 0 
28.5773 10.0485 0 
29.0225 10.9775 0 
28.3532 9.59091 0 
28.7804 10.5042 0 
28.736 10.4266 0 
28.8772 10.71 0 
29.0097 10.9775 0 
28.9971 10.9775 0 
28.799 10.6071 0 
28.9791 10.9775 0 
28.5384 10.0905 0 
28.6064 10.2339 0 
28.6543 10.3489 0 
28.9611 10.9775 0 
28.8769 10.8438 0 
27.9867 8.90909 0 
26.25 0 0 
28.9358 10.9775 0 
28.7871 10.71 0 
28.9106 10.9775 0 
28.6607 10.5042 0 
28.4177 10 0 
26.55 4 0 
28.552 10.2914 0 
28.483 10.1502 0 
28.4087 10.0098 0 
28.8751 10.9775 0 
28.3998 10.0196 0 
28.3866 10.0341 0 
28.8399 10.9775 0 
28.6974 10.71 0 
28.3735 10.0485 0 
28.1625 9.59091 0 
28.7436 10.8438 0 
28.4976 10.3489 0 
28.3543 10.0695 0 
28.791 10.9775 0 
28.4052 10.2339 0 
28.3352 10.0905 0 
28.8519 11.1481 0 
28.1869 9.79545 0 
28.5607 10.6071 0 
28.5053 10.5042 0 
28.7423 10.9775 0 
28.8258 11.1481 0 
28.308 10.1203 0 
28.5787 10.71 0 
27.904 9.25 0 
28.7893 11.1481 0 
28.424 10.4266 0 
27.7528 8.90909 0 
28.2807 10.1502 0 
28.6758 10.9775 0 
27.375 8 0 
28.7383 11.1481 0 
28.1619 10 0 
28.5649 10.8438 0 
28.2425 10.1921 0 
28.6096 10.9775 0 
28.1444 10.0196 0 
28.298 10.3489 0 
28.4605 10.71 0 
26.7 6 0 
27.9315 9.59091 0 
28.3503 10.5042 0 
28.6676 11.1481 0 
28.1187 10.0485 0 
28.2042 10.2339 0 
28.5207 10.9775 0 
28.0813 10.0905 0 
28.6814 11.3186 0 
27.3818 8.45455 0 
28.6679 11.3186 0 
28.1516 10.2914 0 
28.5703 11.1481 0 
28.6544 11.3186 0 
28.6358 11.3186 0 
27.5109 8.90909 0 
28.3072 10.71 0 
28.6173 11.3186 0 
28.2524 10.6071 0 
28.4322 10.9775 0 
28.028 10.1502 0 
28.5915 11.3186 0 
28.0989 10.3489 0 
28.33 10.8438 0 
28.5658 11.3186 0 
28.153 10.5042 0 
27.9061 10 0 
27.8975 10.0098 0 
28.5303 11.3186 0 
28.4384 11.1481 0 
27.7002 9.59091 0 
27.889 10.0196 0 
27.8765 10.0341 0 
28.4949 11.3186 0 
28.3154 10.9775 0 
27.9532 10.2339 0 
27.8639 10.0485 0 
28.0276 10.4266 0 
28.1544 10.71 0 
27.8457 10.0695 0 
27.4909 9.25 0 
28.4463 11.3186 0 
27 8 0 
27.8275 10.0905 0 
28.3979 11.3186 0 
27.8015 10.1203 0 
27.6542 9.79545 0 
25.675 2 0 
28.1991 10.9775 0 
27.2691 8.90909 0 
27.9563 10.5042 0 
28.4682 11.5318 0 
28.2625 11.1481 0 
27.7755 10.1502 0 
28.3322 11.3186 0 
27.8502 10.3489 0 
28.4401 11.5318 0 
25.875 4 0 
27.7391 10.1921 0 
28.4019 11.5318 0 
28.0268 10.8438 0 
28.2668 11.3186 0 
27.9602 10.71 0 
28.3498 11.5318 0 
27.4223 9.59091 0 
27.7026 10.2339 0 
27.5927 10 0 
28.0486 10.9775 0 
27.8616 10.6071 0 
27.5762 10.0196 0 
28.1794 11.3186 0 
28.2786 11.5318 0 
27.5519 10.0485 0 
27.6524 10.2914 0 
28.0319 11.1481 0 
27.7108 10.5042 0 
27.5167 10.0905 0 
27.0169 8.90909 0 
28.0924 11.3186 0 
27.6021 10.3489 0 
27.8988 10.9775 0 
28.1818 11.5318 0 
27.7667 10.71 0 
26.625 8 0 
28.255 11.745 0 
27.4664 10.1502 0 
28.2402 11.745 0 
28.2256 11.745 0 
28.2059 11.745 0 
27.978 11.3186 0 
26.7234 8.45455 0 
27.0259 9.25 0 
27.5342 10.4266 0 
28.1863 11.745 0 
27.1442 9.59091 0 
28.0516 11.5318 0 
28.1598 11.745 0 
27.3959 10.2339 0 
28.1334 11.745 0 
27.2793 10 0 
27.2714 10.0098 0 
27.2635 10.0196 0 
27.7086 10.9775 0 
27.6431 10.8438 0 
28.0975 11.745 0 
27.8643 11.3186 0 
27.4661 10.5042 0 
27.2518 10.0341 0 
27.2401 10.0485 0 
28.0617 11.745 0 
26.7648 8.90909 0 
27.5255 10.71 0 
27.7353 11.1481 0 
27.2231 10.0695 0 
28.0133 11.745 0 
27.2061 10.0905 0 
27.8791 11.5318 0 
27.2986 10.3489 0 
27.1818 10.1203 0 
27.9651 11.745 0 
27.3758 10.6071 0 
27.0077 9.79545 0 
27.7174 11.3186 0 
27.1576 10.1502 0 
25 0 0 
27.5193 10.9775 0 
27.9003 11.745 0 
27.1236 10.1921 0 
26.25 8 0 
27.9939 12.0061 0 
25.65 6 0 
27.8359 11.745 0 
26.8136 9.59091 0 
27.0896 10.2339 0 
27.9626 12.0061 0 
27.2853 10.71 0 
25.2 4 0 
27.5713 11.3186 0 
27.9218 12.0061 0 
26.4998 8.90909 0 
27.167 10.5042 0 
27.6541 11.5318 0 
27.0427 10.2914 0 
27.7503 11.745 0 
26.9033 10 0 
27.8677 12.0061 0 
26.8882 10.0196 0 
26.8659 10.0485 0 
26.9958 10.3489 0 
27.2836 10.9775 0 
27.6652 11.745 0 
27.3609 11.1481 0 
27.7955 12.0061 0 
26.499 9.25 0 
[...]
POINT_DATA 1909
SCALARS phi float 1
LOOKUP_TABLE default
VECTORS Displacement float
0 0 0
0 0 0
0 -0.000907977 0
0 0 0
0 -0.000368479 0
0 0 0
0 0.00144578 0
0 0 0
0 0 0
0 0.0044015 0
0.00836245 -0.000397475 0
0 0 0
0 0.00841579 0
0.0160312 0.0028549 0
0 0 0
0.0112189 -0.000397896 0
0 0.0133002 0
0 0 0
0.0213404 0.00947972 0
0.0142403 -0.00045737 0
0 0 0
0.0245082 0.0182107 0
0 0 0
0.0173441 -0.000609038 0
0 0 0
0.0326281 0.00197148 0
0.020364 -0.00083653 0
0.03898 0.00442714 0
0 0 0
0.0349499 0.00179505 0
0.0436264 0.00760412 0
0.0469167 0.011254 0
0.0371262 0.0016132 0
0.049305 0.0150992 0
0 0 0
0.0392581 0.0013399 0
0.0507968 0.0190778 0
0.0231563 -0.00112071 0
0.0412771 0.0010496 0
0.051626 0.0229822 0
0 0 0
0.0431864 0.000712748 0
0.0562242 0.0062443 0
0.0449794 0.000356737 0
0.0624601 0.0120199 0
0.0256128 -0.00145275 0
0 0 0
0.0605288 0.00457706 0
0.0656545 0.0186598 0
0.0466485 -3.07537e-05 0
0.0660341 0.0253385 0
0.0481886 -0.000438162 0
0 0 0
0.0639493 0.00310244 0
0.0496017 -0.000871456 0
0.0276448 -0.00183454 0
0.0668187 0.00160406 0
0.0508766 -0.00132943 0
0 0 0
0.0787416 0.00668583 0
0.0810463 0.00826915 0
0.0520207 -0.00181086 0
0.0800865 0.005631 0
0.083356 0.0100593 0
0.0691921 2.41881e-05 0
0.0848013 0.0117487 0
0.0843778 0.00918613 0
0.0860094 0.0137432 0
0.0863308 0.0132126 0
0.0812702 0.00461043 0
0.0860693 0.0103989 0
0.0863624 0.0156402 0
0.0866351 0.0128057 0
0.0852958 0.00830919 0
0.0866652 0.0147729 0
0.0835702 0.00609994 0
0.0869286 0.0123791 0
0.086267 0.0177437 0
0.0870951 0.0140981 0
0.0864287 0.0177077 0
0.0927616 0.0199965 0
0.0872028 0.0119942 0
0.0865896 0.0176261 0
0.0954958 0.0207163 0
0.0925591 0.0196264 0
0.0868076 0.0173733 0
0.095298 0.0204841 0
0.0958389 0.0204872 0
0.0950771 0.0201964 0
0.0870228 0.0171133 0
0.0947503 0.0197528 0
0.095856 0.0201838 0
0.0923043 0.0188574 0
0.0957038 0.019961 0
0.0876601 0.0134619 0
0.0875024 0.0116174 0
0.0873044 0.0166879 0
0.0958486 0.0199311 0
0.0944394 0.0193202 0
0.0958457 0.019691 0
0.0959506 0.0197736 0
0.0875776 0.0162729 0
0.0953914 0.0192129 0
0.0530166 -0.00232562 0
0.0940943 0.0187025 0
0.0958313 0.0193584 0
0.0920827 0.0177482 0
0.0959347 0.0193321 0
0.0958031 0.019023 0
0.0959839 0.0194084 0
0.0938353 0.0181315 0
0.0291606 -0.00227416 0
0.0879875 0.0157029 0
0.0959861 0.0191991 0
0.0878073 0.0112783 0
0.0861614 0.007482 0
0 0 0
0.0957338 0.0185381 0
0.0959947 0.0189855 0
0.0949553 0.0181613 0
0.0871783 0.00918648 0
0.0959439 0.0186884 0
0.0883281 0.0127687 0
0.0935634 0.0173833 0
0.0959971 0.0186674 0
0.0883609 0.0152027 0
0.0963551 0.0189573 0
0.0956159 0.0180567 0
0.0960106 0.0183473 0
0.0919708 0.016404 0
0.0962567 0.0185353 0
0.0933677 0.0167183 0
0.0959382 0.0177621 0
0.0954362 0.0173928 0
0.0960278 0.0178906 0
0.0881563 0.0109192 0
0.097194 0.0186456 0
0.0888443 0.0146106 0
0.0944648 0.0168096 0
0.0971062 0.0184246 0
0.0961811 0.0179074 0
0.0960497 0.0174589 0
0.0970189 0.0182012 0
0.095242 0.0167936 0
0.082406 0.00359074 0
0.0931453 0.0159102 0
0.0968861 0.0178703 0
0.0960753 0.0169015 0
0.0892847 0.0140881 0
0.0967594 0.0175474 0
0.095799 0.0166204 0
0.097841 0.0180561 0
0.0961703 0.0170613 0
0.092039 0.0150015 0
0.0890756 0.0120114 0
0.0885042 0.0105744 0
0.0949938 0.0160554 0
0.0966001 0.0171022 0
0.0930191 0.0152214 0
0.0977546 0.017627 0
0.0960633 0.0164087 0
0.094062 0.015378 0
0.0964669 0.0166929 0
0.097611 0.0170374 0
0.0898408 0.0135208 0
0.0980606 0.0174123 0
0.0947972 0.0154267 0
0.0962432 0.0160941 0
0.0980428 0.0172131 0
0.0960421 0.0158029 0
0.0963988 0.0162157 0
0.0980254 0.017024 0
0.0869577 0.00668348 0
0.0929189 0.0144491 0
0.0955164 0.0153811 0
0.0889042 0.0101872 0
0.0980033 0.0167614 0
0.09738 0.0163169 0
0.096384 0.0157905 0
0.0979795 0.0165205 0
0.0959776 0.0152704 0
0.0903338 0.0130033 0
0.0946196 0.0146861 0
0.0922589 0.0136398 0
0.0979531 0.016204 0
0.0982232 0.0165881 0
0.0882762 0.008088 0
0.0929523 0.0137983 0
0.0964239 0.0152795 0
0.0979223 0.0159183 0
0.0899363 0.0111859 0
0.0963018 0.0150492 0
0.0981917 0.0162615 0
0.0970658 0.0154937 0
0.093866 0.0139742 0
0.0893027 0.00980883 0
0.0958867 0.0146103 0
0.0945286 0.0140503 0
0.0978671 0.0155435 0
0.0981554 0.0158417 0
0.096504 0.0148269 0
0.090943 0.0124614 0
0.0952437 0.0140668 0
0.0983719 0.0158784 0
0.0977929 0.0151797 0
0.0983677 0.0157378 0
0.0930391 0.0130851 0
0.0981051 0.0153065 0
0.0983639 0.0156028 0
0.0957921 0.014024 0
0.0983543 0.015413 0
0.0968772 0.0145109 0
0.0966012 0.0142284 0
0.0976075 0.0146836 0
0.0983466 0.0152293 0
0.0944976 0.0133296 0
0.089768 0.00936861 0
0.0963027 0.0138859 0
0.0914969 0.0119452 0
0.087715 0.00589747 0
0.0983392 0.0149708 0
0.0980667 0.0145997 0
0.0927616 0.0123522 0
0.0856714 0.00410438 0
0.097451 0.0142244 0
0.0983307 0.0147206 0
0.0932318 0.0124518 0
0.0987465 0.0150747 0
0.0966291 0.013708 0
0.0957001 0.0133327 0
0.0834382 0.00255218 0
0.0939311 0.0125891 0
0.0987273 0.0148312 0
0.0982994 0.0143805 0
0.0909732 0.0102468 0
0.0945518 0.0126894 0
0.0902363 0.0089336 0
0.0972932 0.0136668 0
0.0987113 0.0144864 0
0.0982836 0.0140842 0
0.0969431 0.0134527 0
0.0951299 0.012715 0
0.0979188 0.0137609 0
0.092185 0.0113625 0
0.0966427 0.0131065 0
0.0893709 0.0069801 0
0.0956662 0.0127125 0
0.098696 0.0140281 0
0.0982551 0.0136873 0
0.099108 0.0143647 0
0.093504 0.0117278 0
0.071054 -0.00165629 0
0.0972933 0.0132196 0
0.0991078 0.0142472 0
0.09911 0.0141306 0
0.0962466 0.0126433 0
0.0990936 0.0139641 0
0.0982241 0.0133363 0
0.0946829 0.0119342 0
0.0990819 0.0138024 0
0.0986826 0.0134837 0
0.09078 0.00841064 0
0.0966751 0.0125386 0
0.0884315 0.00511234 0
0.0990857 0.0136074 0
0.0977824 0.0128885 0
0.0538728 -0.00286163 0
0.0928238 0.010772 0
0.0973643 0.012665 0
0.0956256 0.0119138 0
0.0990892 0.0134275 0
0.0935479 0.010986 0
0.098217 0.0129324 0
0.0938401 0.0110308 0
0.0970796 0.0123431 0
0.099098 0.0131955 0
0.0943388 0.0111142 0
0.099665 0.0134869 0
0.0986892 0.0128548 0
0.0948673 0.011199 0
0.0996673 0.0133126 0
0.0991097 0.0129739 0
0.0982078 0.0125408 0
0.0922164 0.00908409 0
0.0967494 0.0118035 0
0.0974187 0.0121217 0
0.0952743 0.0111842 0
0.0913177 0.00788425 0
0.0996705 0.0130803 0
0.0991197 0.0126805 0
0.0956336 0.0111442 0
0.0935958 0.0100187 0
0.0996743 0.0127763 0
0.0982125 0.0120046 0
0.0963513 0.0111519 0
0.0991279 0.0123967 0
0.097844 0.0117975 0
0.0844005 0.00148759 0
0.0942954 0.0101603 0
0.0986923 0.0120782 0
0.0904689 0.00580351 0
0.100199 0.0128053 0
0.089124 0.00430965 0
0.0974969 0.0113921 0
0.0968147 0.0110715 0
0.100202 0.0127343 0
0.0951149 0.0102618 0
0.099686 0.0123681 0
0.100204 0.0126652 0
0.0991405 0.0120138 0
0.100209 0.0125635 0
0.0919352 0.00723721 0
0.0982362 0.0114663 0
0.100213 0.0124638 0
0.0972419 0.0108817 0
0.0957761 0.0101887 0
0.10022 0.0123232 0
0.0991557 0.0116325 0
0.100227 0.0121825 0
0.0943005 0.0092429 0
0.0997096 0.0118155 0
0.0945796 0.00929182 0
0.0975772 0.0106659 0
0.0947799 0.00930693 0
0.100237 0.0119867 0
0.095089 0.00932938 0
0.0969122 0.0101065 0
0.0987346 0.0110269 0
0.0982838 0.0107507 0
0.100247 0.0117921 0
0.0954084 0.0093478 0
0.0991825 0.0111159 0
0.100913 0.0120476 0
0.0925225 0.0065765 0
0.0957157 0.00930943 0
0.0979625 0.0103488 0
0.100916 0.0119123 0
0.0936066 0.00755533 0
0.100262 0.0115212 0
0.0897735 0.00349882 0
0.096004 0.00926264 0
0.0874001 0.0020204 0
0.0997527 0.0110638 0
0.100921 0.0117203 0
0.100277 0.0112512 0
0.0992175 0.0105968 0
0.0964723 0.00920248 0
0.097659 0.00971159 0
0.0983473 0.0100324 0
0.10093 0.0114478 0
0.0950953 0.0082449 0
0.0969672 0.00913721 0
0.0915549 0.00450375 0
0.100302 0.0108805 0
0.0953993 0.00823823 0
0.0852492 0.000402102 0
0.100948 0.0110645 0
0.0974407 0.00897433 0
0.0958122 0.0081997 0
0.101541 0.0113181 0
0.0931859 0.00575816 0
0.0992818 0.00990488 0
0.0988655 0.00961649 0
0.10033 0.0105099 0
0.101542 0.0112513 0
0.101544 0.0111846 0
0.0998379 0.0100442 0
0.101547 0.0110895 0
0.0963364 0.00809928 0
0.0977579 0.00876116 0
0.0984523 0.00910485 0
0.10155 0.0109946 0
0.10098 0.0105325 0
0.0903928 0.00265523 0
0 0 0
0.101555 0.0108597 0
0.100373 0.0100089 0
0.10156 0.0107253 0
0.0993646 0.0092163 0
0.0957963 0.00722116 0
0.0545681 -0.00344403 0
0.0981858 0.00847085 0
0.0970841 0.00793854 0
0.0959074 0.00720235 0
0.101569 0.0105364 0
0.0960187 0.00718254 0
0.0961805 0.00715038 0
0.101578 0.0103476 0
0.100424 0.00950861 0
0.0963404 0.00711596 0
0.0937932 0.0049189 0
0.101035 0.00980327 0
0.0985937 0.00819328 0
0.0965673 0.00706173 0
0.101593 0.0100854 0
0.0979229 0.00760117 0
0.0967904 0.00700325 0
0.102255 0.0104109 0
0.0950474 0.00554853 0
0.0999955 0.00870032 0
0.0994875 0.00833603 0
0.10161 0.0098231 0
0.102257 0.0102744 0
0.0971079 0.00691156 0
0.100499 0.00884862 0
0.0925972 0.00302507 0
0.102262 0.0100834 0
0.0991243 0.00783005 0
0.0909583 0.00179478 0
0.0974117 0.00680994 0
0.101636 0.00946344 0
0.0859995 -0.000707573 0
0.10227 0.0098152 0
0.0965143 0.00590314 0
0.101127 0.0088216 0
0.0977981 0.00665178 0
0.101664 0.0091037 0
0.096697 0.00585164 0
0.0987834 0.00708427 0
0.100582 0.00819209 0
0.0723781 -0.00345965 0
0.0944506 0.00388022 0
0.0996249 0.00747132 0
0.102285 0.00943985 0
0.096961 0.00577017 0
0.0981496 0.00648219 0
0.101705 0.00861838 0
0.0973325 0.00564056 0
0.102817 0.00951049 0
0.0888022 -0.000137152 0
0.102818 0.0094403 0
0.098579 0.00624386 0
0.102311 0.00891857 0
0.10282 0.00937047 0
0.102822 0.00927301 0
0.0914841 0.000888533 0
0.100693 0.00734419 0
0.102825 0.00917582 0
0.100238 0.00699245 0
0.101749 0.00813264 0
0.0978267 0.00543307 0
0.102829 0.00903991 0
0.0989815 0.00600066 0
0.101265 0.00752568 0
0.102834 0.00890403 0
0.0998011 0.00638919 0
0.0970854 0.00454895 0
0.0971657 0.00451897 0
0.102841 0.00871458 0
0.102354 0.00820272 0
0.0950258 0.00281644 0
0.097245 0.00448844 0
0.0973599 0.00444232 0
0.102849 0.00852489 0
0.101808 0.00748795 0
0.0984572 0.00510967 0
0.0974733 0.00439511 0
0.0994906 0.00566328 0
0.1008 0.00650117 0
0.097634 0.00432473 0
0.0935498 0.00131242 0
0.10286 0.0082623 0
0.0866353 -0.00184222 0
0.0977913 0.0042522 0
0.102872 0.00799889 0
0.0980096 0.0041458 0
0.0963473 0.0029371 0
0.0300497 -0.00277822 0
0.101867 0.00684135 0
0.0919431 -3.88787e-05 0
0.0999624 0.00531403 0
0.103354 0.00837717 0
0.102418 0.00723177 0
0.0982219 0.00403638 0
0.102889 0.00763829 0
0.0992434 0.00463102 0
0.103356 0.00822675 0
0.0551085 -0.00404155 0
0.0985064 0.00387783 0
0.103359 0.00802163 0
0.101445 0.00583848 0
0.102907 0.00727581 0
0.100933 0.00541949 0
0.103364 0.0077385 0
0.0955967 0.00150806 0
0.0987836 0.0037146 0
0.0976379 0.00288791 0
0.101941 0.00599525 0
0.100533 0.00483319 0
0.097771 0.00282196 0
0.102931 0.0067859 0
0.103372 0.00734639 0
0.0979651 0.00272193 0
0.0991496 0.00348229 0
0.102503 0.00593113 0
0.100164 0.00393735 0
0.0982402 0.00257144 0
0.0923525 -0.00102372 0
0.102954 0.00629242 0
0.0994966 0.00323979 0
0.102008 0.00514342 0
0.103386 0.00680485 0
0.101048 0.00433075 0
0.0871708 -0.00301265 0
0.103666 0.00720496 0
0.0986196 0.00234681 0
0.103667 0.00712294 0
0.103669 0.00704121 0
0.10367 0.0069311 0
0.102983 0.00563483 0
0.0898271 -0.00241153 0
0.0943524 -0.000687981 0
0.0999369 0.00289772 0
0.103672 0.00682117 0
0.0960541 0.000175868 0
0.103405 0.00606186 0
0.103674 0.00667121 0
0.0991249 0.00201451 0
0.103677 0.00652123 0
0.098062 0.00121553 0
0.0981225 0.00118025 0
0.0981828 0.00114472 0
0.102085 0.00404161 0
0.101638 0.00364645 0
0.10368 0.00631573 0
0.10301 0.00497112 0
0.100346 0.00254045 0
0.0982701 0.00109186 0
0.0983568 0.00103844 0
0.103684 0.00610978 0
0.0926868 -0.00202892 0
0.101182 0.00293786 0
0.102597 0.00420929 0
0.0984804 0.000959956 0
0.103688 0.0058282 0
0.0986025 0.00088032 0
0.103429 0.00505241 0
0.099763 0.00152485 0
0.0987734 0.000764799 0
0.103692 0.00554547 0
0.100842 0.00204532 0
0.0973115 -0.000343697 0
0.103039 0.00410011 0
0.0989412 0.00064674 0
0 0 0
0.102145 0.0029266 0
0.103697 0.00516155 0
0.0991702 0.000477374 0
0.0875848 -0.00420994 0
0.103792 0.00569678 0
0.0731324 -0.00540466 0
0.103701 0.00477537 0
0.0964546 -0.00143068 0
0.0993919 0.000303005 0
0.103794 0.00551124 0
0.10129 0.00152686 0
0.0554715 -0.00470417 0
0.103061 0.0032197 0
0.103796 0.00526768 0
0.09296 -0.00310312 0
0.100529 0.000810201 0
0.103451 0.0036977 0
0.0996844 5.57482e-05 0
0.103705 0.00425649 0
0.0984308 -0.000796529 0
0.103798 0.00494168 0
0.0985361 -0.000871437 0
0.0986893 -0.000983834 0
0.0999637 -0.000199716 0
0.102203 0.00150897 0
0.103708 0.00373383 0
0.102673 0.00195888 0
0.1038 0.0045008 0
0.0949247 -0.00302737 0
0.0989064 -0.00115068 0
0.1018 0.000819696 0
0.103077 0.00208396 0
0.10032 -0.000557343 0
0.103801 0.00390294 0
0.103707 0.00304087 0
0.0992047 -0.0013962 0
0.101382 -0.000221644 0
0.0931546 -0.0041941 0
0.0904407 -0.00481234 0
0.0967189 -0.00305215 0
0.103457 0.00190682 0
0.100652 -0.000929046 0
0.0878895 -0.00544228 0
0.103647 0.00408838 0
0.0996003 -0.00175488 0
0.103703 0.00234234 0
0.103648 0.00398289 0
0.103799 0.00309474 0
0.102234 7.65031e-05 0
0.103649 0.00387779 0
0.103078 0.000936211 0
0.10365 0.0037424 0
0.10365 0.00360732 0
0.103651 0.00342953 0
0.0986505 -0.00281618 0
0.101056 -0.0014422 0
0.0986974 -0.00285567 0
0.0987439 -0.00289539 0
0.103651 0.00325194 0
0.098812 -0.00295432 0
0.100104 -0.00227506 0
0.10369 0.00143081 0
0.0988794 -0.00301376 0
0.103651 0.00301531 0
0.0989761 -0.00310076 0
0.103787 0.00201065 0
0.103651 0.00277864 0
0.0990713 -0.0031888 0
0.0992047 -0.00331597 0
0.0932757 -0.0053653 0
0.101419 -0.00197818 0
0.103649 0.00246198 0
0.102679 -0.000921011 0
0.103058 -0.000513125 0
0.0993352 -0.00344514 0
0.103668 0.000512213 0
0.103647 0.00214487 0
0.102231 -0.00169451 0
0.0978031 -0.00430911 0
0.0995131 -0.0036293 0
0.103413 -0.00041644 0
0.10071 -0.00302423 0
0.103642 0.00172154 0
0.0968694 -0.00496527 0
0.0996854 -0.00381718 0
0.0880665 -0.00669997 0
0.103756 0.000573482 0
0.0556577 -0.00536582 0
0.103636 0.00129717 0
0.10183 -0.00270722 0
0.0951762 -0.00574493 0
0.0999133 -0.00408164 0
0.103628 -0.000664476 0
0.103144 0.00202224 0
0.10301 -0.00197239 0
0.103625 0.000734784 0
0.103145 0.00177746 0
0.100131 -0.00435312 0
0.0933151 -0.00654888 0
0.103146 0.00147087 0
0.0987256 -0.00519918 0
0.0988073 -0.00528222 0
0.10361 0.000170614 0
0.102175 -0.00347142 0
0.101382 -0.00409481 0
0.103146 0.00107699 0
0.0989256 -0.00540618 0
0.100407 -0.00473045 0
0.103571 -0.00184815 0
0.0990929 -0.00558897 0
0.090636 -0.0073266 0
0.103683 -0.00130242 0
0.103143 0.000562364 0
0.103586 -0.000568641 0
0.100664 -0.00511998 0
0.0993226 -0.00585559 0
0.0732869 -0.0075044 0
0.10291 -0.00376913 0
0.0968528 -0.00688527 0
0.103134 -0.000115787 0
0.103265 -0.00335834 0
0.088128 -0.00798549 0
0.103557 -0.0013103 0
0.102519 -0.00449377 0
0.0996271 -0.00624078 0
0.100973 -0.00565436 0
0.0932694 -0.00782256 0
0.103477 -0.00333232 0
0.103115 -0.00101065 0
0 0 0
0.103509 -0.00226802 0
0.102034 -0.00560941 0
0.102338 -0.000194871 0
0.100012 -0.00679273 0
0.101249 -0.00620896 0
0.102338 -0.000336602 0
0.102339 -0.000477895 0
0.0301851 -0.00333989 0
0.098605 -0.00757515 0
0.102339 -0.000651048 0
0.103533 -0.00370382 0
0.0986409 -0.00761837 0
0.0986765 -0.00766177 0
0.102338 -0.000823759 0
0.10276 -0.00556751 0
0.0987288 -0.00772608 0
0.103077 -0.00218603 0
0.103452 -0.00322808 0
0.102337 -0.0010413 0
0.0987807 -0.00779076 0
0.103354 -0.00481995 0
0.0988549 -0.00788522 0
0.102336 -0.00125841 0
0.0989279 -0.00798047 0
0.101556 -0.00695904 0
0.102333 -0.00153716 0
0.100471 -0.00757759 0
0.09903 -0.00811758 0
0.0950108 -0.00886391 0
0.0556435 -0.00611617 0
0.102329 -0.00181549 0
0.0931388 -0.00910358 0
0.0991297 -0.00825628 0
0.0880607 -0.00929154 0
0.102323 -0.00217679 0
0.0992652 -0.00845315 0
0.103364 -0.00444625 0
0.0966516 -0.00910059 0
0.0975842 -0.00895612 0
0.102316 -0.00253771 0
0.099396 -0.00865316 0
0.103003 -0.00371509 0
0.101806 -0.0077408 0
0.102304 -0.00300786 0
0.10292 -0.00697722 0
0.0995681 -0.00893318 0
0.103164 -0.00664127 0
0.0904235 -0.00993344 0
0.100968 -0.0086848 0
0.102513 -0.00772399 0
0.102289 -0.00347765 0
0.0997312 -0.00921898 0
0.103258 -0.005665 0
0.103247 -0.00670649 0
0.102266 -0.00408796 0
0.099937 -0.00961384 0
0.102043 -0.00878124 0
0.092908 -0.0104839 0
0.101008 -0.0029859 0
0.10287 -0.00567657 0
0.0982379 -0.0102998 0
0.102239 -0.00469776 0
0.101009 -0.00331781 0
0.098301 -0.0103893 0
0.100126 -0.0100189 0
0.0983918 -0.0105226 0
0.0878788 -0.0106176 0
0.101009 -0.00371344 0
0.103102 -0.00718041 0
0.102929 -0.00845761 0
0.0985198 -0.0107183 0
0.102197 -0.00548376 0
0.101005 -0.00419846 0
0.100352 -0.0105711 0
0.101426 -0.010232 0
0.0986946 -0.0110021 0
0.0962539 -0.0113121 0
0.102189 -0.00986834 0
0.100997 -0.00480629 0
0.102149 -0.00626869 0
0.0989244 -0.0114092 0
0.100548 -0.0111405 0
0.102918 -0.00869164 0
0.10098 -0.00557913 0
0.092591 -0.0118666 0
0.102637 -0.00814758 0
0.102076 -0.00726834 0
0.0992117 -0.011987 0
0.0554276 -0.00683103 0
0.0728176 -0.0097639 0
0.102584 -0.0106248 0
0.10076 -0.0119057 0
0.0943099 -0.0123942 0
0.100947 -0.00656847 0
0.102742 -0.0103598 0
0.102247 -0.0112886 0
0.0875742 -0.0119567 0
0.101992 -0.00826543 0
0.0995466 -0.0127999 0
0.102655 -0.0105285 0
0.0976363 -0.0129965 0
0.0993621 -0.00596817 0
0.0976637 -0.0130425 0
0.0976908 -0.0130888 0
0.100922 -0.0126982 0
0.0898233 -0.0126109 0
0.0993624 -0.00616123 0
0.101707 -0.0123676 0
0.097731 -0.0131572 0
0.100888 -0.00783479 0
0.0977708 -0.0132259 0
0.0993623 -0.00635388 0
0.0978278 -0.013326 0
0.0993613 -0.0065784 0
0.0978838 -0.0134268 0
0.10187 -0.00951566 0
0.0993598 -0.00680245 0
0.0979617 -0.0135714 0
0.0993571 -0.0070713 0
0.0980376 -0.0137174 0
0.0921531 -0.0133556 0
0.0993535 -0.0073396 0
0.0955977 -0.0138029 0
0.10217 -0.0127727 0
0.0981403 -0.013924 0
0.102248 -0.0111927 0
0.0993479 -0.00766926 0
0.0998961 -0.0139329 0
0.0982388 -0.014133 0
0.101059 -0.0137466 0
0.100784 -0.00944568 0
0.099341 -0.0079982 0
0.101729 -0.0107601 0
0.102349 -0.0123521 0
0.0964029 -0.0142216 0
0 0 0
0.0983676 -0.0144245 0
0.0993306 -0.0084093 0
0.0871616 -0.0133093 0
0.0984887 -0.0147206 0
0.0993181 -0.00881943 0
0.0992994 -0.00933705 0
0.0986396 -0.0151277 0
0.101117 -0.0148355 0
0.10153 -0.0122918 0
0.0992776 -0.00985325 0
0.10061 -0.0114717 0
0.0987764 -0.0155431 0
0.10019 -0.0154965 0
0.1019 -0.0146705 0
0.0916271 -0.0148425 0
0.0992454 -0.0105067 0
0.101926 -0.0145142 0
0.101596 -0.0152658 0
0.0549799 -0.00765502 0
0.0989355 -0.0161062 0
0.0966989 -0.0159993 0
0.0992081 -0.0111578 0
0.0967487 -0.0160933 0
0.101304 -0.0138116 0
0.0968197 -0.0162328 0
0.0970568 -0.00961754 0
0.101081 -0.0162501 0
0.101623 -0.0148498 0
0.0969191 -0.0164372 0
0.0990697 -0.0166832 0
0.0991539 -0.0119795 0
0.0970573 -0.0100682 0
0.0947253 -0.0162721 0
0.0866403 -0.0146662 0
0.0970541 -0.0167323 0
0.0970551 -0.0105806 0
0.0888571 -0.0153392 0
0.100324 -0.0139796 0
0.09295 -0.0163195 0
0.0990918 -0.0127975 0
0.09723 -0.0171533 0
0.0992065 -0.017454 0
0.0970484 -0.011179 0
0.101443 -0.0166485 0
0.100303 -0.0176279 0
0.100991 -0.0156427 0
0.0970346 -0.0118951 0
0.0974469 -0.0177467 0
0.0909556 -0.0164387 0
0.100927 -0.0177201 0
0.0990028 -0.0138213 0
0.0993012 -0.0182471 0
0.0717063 -0.0121611 0
0.0970091 -0.0127683 0
0.0989016 -0.0148387 0
0.0976936 -0.0185739 0
0.0294581 -0.00392361 0
0.10064 -0.017452 0
0.0969647 -0.0138464 0
0.0860204 -0.0160293 0
0.0993609 -0.0192897 0
0.099872 -0.0170219 0
0.0987594 -0.0160962 0
0.100798 -0.0191122 0
0.0955092 -0.0189402 0
0.0955304 -0.018988 0
0.0955514 -0.0190359 0
0.0955832 -0.0191068 0
0.100583 -0.0195899 0
0.0956146 -0.0191779 0
0.0979389 -0.0197149 0
0.100663 -0.0191158 0
0.0956599 -0.0192813 0
0.0968899 -0.0151844 0
0.0957044 -0.0193852 0
0.0957663 -0.0195342 0
0.0935341 -0.0189774 0
0.0901986 -0.0180249 0
0.0944601 -0.0134787 0
0.0993526 -0.0203658 0
0.0958264 -0.0196841 0
0.0543171 -0.00838653 0
0.098599 -0.017343 0
0.09446 -0.0137389 0
0.100042 -0.0204867 0
0.0959074 -0.0198958 0
0.0944591 -0.0139988 0
0.100169 -0.0195809 0
0.0959848 -0.0201094 0
0.0944569 -0.0142881 0
0.0944537 -0.0145769 0
0.0960854 -0.0204062 0
0.0967668 -0.0168428 0
0.0944488 -0.0149071 0
0.0940648 -0.0199652 0