# vtk DataFile Version 3.0
File generated from DClib
ASCII

DATASET UNSTRUCTURED_GRID
POINTS 1909 float
50 0 0 
48.75 0 0 
50 1.66667 0 
47.5 0 0 
50 3.33333 0 
46.25 0 0 
50 5 0 
45 0 0 
43.75 0 0 
50 6.66667 0 
43 2 0 
42.5 0 0 
50 8.33333 0 
43 4.66667 0 
41.25 0 0 
41.075 2 0 
50 10 0 
40 0 0 
43 7.33333 0 
39.15 2 0 
38.75 0 0 
43 10 0 
37.5 0 0 
37.225 2 0 
36.25 0 0 
36 4 0 
35.3 2 0 
36 5 0 
35 0 0 
35.325 4 0 
36 6 0 
36 7 0 
34.65 4 0 
36 8 0 
33.75 0 0 
33.975 4 0 
36 9 0 
33.375 2 0 
33.3 4 0 
36 10 0 
32.5 0 0 
32.625 4 0 
33 6 0 
31.95 4 0 
33 7.45455 0 
31.45 2 0 
31.25 0 0 
31.95 6 0 
33 8.79545 0 
31.275 4 0 
33 10 0 
30.6 4 0 
30 0 0 
30.9 6 0 
29.925 4 0 
29.525 2 0 
29.85 6 0 
29.25 4 0 
28.75 0 0 
30 8 0 
30 8.45455 0 
28.575 4 0 
29.625 8 0 
30 8.90909 0 
28.8 6 0 
30 9.25 0 
29.782 8.90909 0 
30 9.59091 0 
29.9487 9.59091 0 
29.25 8 0 
29.7462 9.25 0 
30 9.79545 0 
29.897 9.59091 0 
29.564 8.90909 0 
29.9547 9.79545 0 
29.3462 8.45455 0 
29.84 9.59091 0 
30 10 0 
29.8975 9.79545 0 
29.9882 10 0 
29.9902 10.0098 0 
29.7827 9.59091 0 
29.9765 10 0 
29.9804 10.0196 0 
29.9667 10.0098 0 
29.9591 10 0 
29.9686 10.0196 0 
29.9659 10.0341 0 
29.9569 10.0196 0 
29.9418 10 0 
29.9395 10.0196 0 
29.9515 10.0485 0 
29.932 10.0098 0 
29.9424 10.0341 0 
29.8241 9.79545 0 
29.7181 9.59091 0 
29.9166 10 0 
29.9397 10.0485 0 
29.9222 10.0196 0 
29.9279 10.0485 0 
29.9305 10.0695 0 
29.8914 10 0 
29.9077 10.0341 0 
27.9 4 0 
29.897 10.0196 0 
29.9106 10.0485 0 
29.8817 10.0098 0 
29.907 10.0695 0 
29.8933 10.0485 0 
29.9095 10.0905 0 
29.8719 10.0196 0 
27.6 2 0 
29.8556 10 0 
29.8978 10.0905 0 
29.6531 9.59091 0 
29.3437 8.90909 0 
27.5 0 0 
29.8681 10.0485 0 
29.886 10.0905 0 
29.8574 10.0341 0 
29.4839 9.25 0 
29.8723 10.0695 0 
29.7289 9.79545 0 
29.836 10.0196 0 
29.8687 10.0905 0 
29.8197 10 0 
29.8797 10.1203 0 
29.843 10.0485 0 
29.8513 10.0905 0 
29.81 10.0098 0 
29.8561 10.1203 0 
29.8002 10.0196 0 
29.8221 10.0695 0 
29.8072 10.0485 0 
29.8262 10.0905 0 
29.5782 9.59091 0 
29.8498 10.1502 0 
29.7695 10 0 
29.7858 10.0341 0 
29.838 10.1502 0 
29.8215 10.1203 0 
29.8011 10.0905 0 
29.8262 10.1502 0 
29.7714 10.0485 0 
28.875 8 0 
29.75 10.0196 0 
29.8089 10.1502 0 
29.7654 10.0905 0 
29.7193 10 0 
29.7916 10.1502 0 
29.7505 10.0695 0 
29.8079 10.1921 0 
29.7713 10.1203 0 
29.7096 10.0098 0 
29.6047 9.79545 0 
29.503 9.59091 0 
29.7213 10.0485 0 
29.7665 10.1502 0 
29.6999 10.0196 0 
29.7844 10.1921 0 
29.7296 10.0905 0 
29.6856 10.0341 0 
29.7414 10.1502 0 
29.7497 10.1921 0 
29.6503 10 0 
29.7661 10.2339 0 
29.6712 10.0485 0 
29.6999 10.1203 0 
29.7543 10.2339 0 
29.6796 10.0905 0 
29.7057 10.1502 0 
29.7425 10.2339 0 
29.1235 8.90909 0 
29.6309 10.0196 0 
29.6504 10.0695 0 
29.4146 9.59091 0 
29.7252 10.2339 0 
29.6996 10.1921 0 
29.6701 10.1502 0 
29.7079 10.2339 0 
29.6296 10.0905 0 
29.5813 10 0 
29.6023 10.0485 0 
29.5716 10.0098 0 
29.6828 10.2339 0 
29.7086 10.2914 0 
29.2101 9.25 0 
29.562 10.0196 0 
29.6201 10.1502 0 
29.6578 10.2339 0 
29.4428 9.79545 0 
29.5999 10.1203 0 
29.6849 10.2914 0 
29.6283 10.1921 0 
29.5477 10.0341 0 
29.3259 9.59091 0 
29.5608 10.0905 0 
29.5335 10.0485 0 
29.6221 10.2339 0 
29.6503 10.2914 0 
29.5702 10.1502 0 
29.4881 10 0 
29.5128 10.0695 0 
29.6511 10.3489 0 
29.5866 10.2339 0 
29.6392 10.3489 0 
29.4689 10.0196 0 
29.6002 10.2914 0 
29.6273 10.3489 0 
29.4921 10.0905 0 
29.61 10.3489 0 
29.5286 10.1921 0 
29.5016 10.1502 0 
29.5368 10.2339 0 
29.5926 10.3489 0 
29.4405 10.0485 0 
29.2199 9.59091 0 
29.4626 10.1203 0 
29.3949 10 0 
28.9 8.90909 0 
29.5676 10.3489 0 
29.5291 10.2914 0 
29.3853 10.0098 0 
28.6923 8.45455 0 
29.487 10.2339 0 
29.5426 10.3489 0 
29.3758 10.0196 0 
29.5734 10.4266 0 
29.4331 10.1502 0 
29.3993 10.0905 0 
28.5 8 0 
29.3617 10.0341 0 
29.5496 10.4266 0 
29.5071 10.3489 0 
29.2327 9.79545 0 
29.3475 10.0485 0 
29.1136 9.59091 0 
29.4187 10.2339 0 
29.5148 10.4266 0 
29.4716 10.3489 0 
29.3918 10.1921 0 
29.3271 10.0695 0 
29.4298 10.2914 0 
29.2714 10 0 
29.3406 10.1502 0 
28.9208 9.25 0 
29.3066 10.0905 0 
29.4648 10.4266 0 
29.422 10.3489 0 
29.4958 10.5042 0 
29.2524 10.0196 0 
27.75 6 0 
29.3504 10.2339 0 
29.4837 10.5042 0 
29.4718 10.5042 0 
29.2774 10.1203 0 
29.4543 10.5042 0 
29.3724 10.3489 0 
29.2244 10.0485 0 
29.4369 10.5042 0 
29.3938 10.4266 0 
28.9853 9.59091 0 
29.2481 10.1502 0 
28.6766 8.90909 0 
29.4119 10.5042 0 
29.2934 10.2914 0 
27.225 4 0 
29.148 10 0 
29.2582 10.2339 0 
29.1837 10.0905 0 
29.3869 10.5042 0 
29.1385 10.0098 0 
29.3044 10.3489 0 
29.1291 10.0196 0 
29.2072 10.1921 0 
29.3514 10.5042 0 
29.1152 10.0341 0 
29.3929 10.6071 0 
29.2949 10.4266 0 
29.1013 10.0485 0 
29.3686 10.6071 0 
29.316 10.5042 0 
29.2364 10.3489 0 
28.9623 9.79545 0 
29.1257 10.1502 0 
29.1662 10.2339 0 
29.0811 10.0695 0 
28.8566 9.59091 0 
29.3336 10.6071 0 
29.2666 10.5042 0 
29.0609 10.0905 0 
28.9875 10 0 
29.2835 10.6071 0 
29.1448 10.3489 0 
29.0321 10.1203 0 
29.2173 10.5042 0 
29.1098 10.2914 0 
28.125 8 0 
28.9688 10.0196 0 
29.1594 10.4266 0 
28.611 9.25 0 
29.29 10.71 0 
28.4486 8.90909 0 
29.0443 10.2339 0 
29.0033 10.1502 0 
29.2777 10.71 0 
28.9413 10.0485 0 
29.2128 10.6071 0 
29.2655 10.71 0 
29.1497 10.5042 0 
29.2478 10.71 0 
28.7003 9.59091 0 
29.0533 10.3489 0 
29.2303 10.71 0 
28.9629 10.1921 0 
28.9013 10.0905 0 
29.2051 10.71 0 
29.0822 10.5042 0 
29.1801 10.71 0 
28.827 10 0 
29.1144 10.6071 0 
28.8177 10.0098 0 
28.9225 10.2339 0 
28.8085 10.0196 0 
29.1447 10.71 0 
28.7949 10.0341 0 
28.8443 10.1502 0 
28.977 10.4266 0 
28.9322 10.3489 0 
29.1094 10.71 0 
28.7813 10.0485 0 
28.9912 10.5042 0 
29.1562 10.8438 0 
28.5436 9.59091 0 
28.7615 10.0695 0 
28.8669 10.2914 0 
29.1313 10.8438 0 
28.6184 9.79545 0 
29.0602 10.71 0 
28.2207 8.90909 0 
28.7418 10.0905 0 
28.0378 8.45455 0 
28.9798 10.6071 0 
29.0958 10.8438 0 
29.0112 10.71 0 
28.9005 10.5042 0 
28.7136 10.1203 0 
28.7644 10.2339 0 
28.8113 10.3489 0 
29.0454 10.8438 0 
28.6223 10 0 
28.6854 10.1502 0 
28.2746 9.25 0 
28.9441 10.71 0 
28.6042 10.0196 0 
27.75 8 0 
28.9747 10.8438 0 
28.6459 10.1921 0 
28.5773 10.0485 0 
29.0225 10.9775 0 
28.3532 9.59091 0 
28.7804 10.5042 0 
28.736 10.4266 0 
28.8772 10.71 0 
29.0097 10.9775 0 
28.9971 10.9775 0 
28.799 10.6071 0 
28.9791 10.9775 0 
28.5384 10.0905 0 
28.6064 10.2339 0 
28.6543 10.3489 0 
28.9611 10.9775 0 
28.8769 10.8438 0 
27.9867 8.90909 0 
26.25 0 0 
28.9358 10.9775 0 
28.7871 10.71 0 
28.9106 10.9775 0 
28.6607 10.5042 0 
28.4177 10 0 
26.55 4 0 
28.552 10.2914 0 
28.483 10.1502 0 
28.4087 10.0098 0 
28.8751 10.9775 0 
28.3998 10.0196 0 
28.3866 10.0341 0 
28.8399 10.9775 0 
28.6974 10.71 0 
28.3735 10.0485 0 
28.1625 9.59091 0 
28.7436 10.8438 0 
28.4976 10.3489 0 
28.3543 10.0695 0 
28.791 10.9775 0 
28.4052 10.2339 0 
28.3352 10.0905 0 
28.8519 11.1481 0 
28.1869 9.79545 0 
28.5607 10.6071 0 
28.5053 10.5042 0 
28.7423 10.9775 0 
28.8258 11.1481 0 
28.308 10.1203 0 
28.5787 10.71 0 
27.904 9.25 0 
28.7893 11.1481 0 
28.424 10.4266 0 
27.7528 8.90909 0 
28.2807 10.1502 0 
28.6758 10.9775 0 
27.375 8 0 
28.7383 11.1481 0 
28.1619 10 0 
28.5649 10.8438 0 
28.2425 10.1921 0 
28.6096 10.9775 0 
28.1444 10.0196 0 
28.298 10.3489 0 
28.4605 10.71 0 
26.7 6 0 
27.9315 9.59091 0 
28.3503 10.5042 0 
28.6676 11.1481 0 
28.1187 10.0485 0 
28.2042 10.2339 0 
28.5207 10.9775 0 
28.0813 10.0905 0 
28.6814 11.3186 0 
27.3818 8.45455 0 
28.6679 11.3186 0 
28.1516 10.2914 0 
28.5703 11.1481 0 
28.6544 11.3186 0 
28.6358 11.3186 0 
27.5109 8.90909 0 
28.3072 10.71 0 
28.6173 11.3186 0 
28.2524 10.6071 0 
28.4322 10.9775 0 
28.028 10.1502 0 
28.5915 11.3186 0 
28.0989 10.3489 0 
28.33 10.8438 0 
28.5658 11.3186 0 
28.153 10.5042 0 
27.9061 10 0 
27.8975 10.0098 0 
28.5303 11.3186 0 
28.4384 11.1481 0 
27.7002 9.59091 0 
27.889 10.0196 0 
27.8765 10.0341 0 
28.4949 11.3186 0 
28.3154 10.9775 0 
27.9532 10.2339 0 
27.8639 10.0485 0 
28.0276 10.4266 0 
28.1544 10.71 0 
27.8457 10.0695 0 
27.4909 9.25 0 
28.4463 11.3186 0 
27 8 0 
27.8275 10.0905 0 
28.3979 11.3186 0 
27.8015 10.1203 0 
27.6542 9.79545 0 
25.675 2 0 
28.1991 10.9775 0 
27.2691 8.90909 0 
27.9563 10.5042 0 
28.4682 11.5318 0 
28.2625 11.1481 0 
27.7755 10.1502 0 
28.3322 11.3186 0 
27.8502 10.3489 0 
28.4401 11.5318 0 
25.875 4 0 
27.7391 10.1921 0 
28.4019 11.5318 0 
28.0268 10.8438 0 
28.2668 11.3186 0 
27.9602 10.71 0 
28.3498 11.5318 0 
27.4223 9.59091 0 
27.7026 10.2339 0 
27.5927 10 0 
28.0486 10.9775 0 
27.8616 10.6071 0 
27.5762 10.0196 0 
28.1794 11.3186 0 
28.2786 11.5318 0 
27.5519 10.0485 0 
27.6524 10.2914 0 
28.0319 11.1481 0 
27.7108 10.5042 0 
27.5167 10.0905 0 
27.0169 8.90909 0 
28.0924 11.3186 0 
27.6021 10.3489 0 
27.8988 10.9775 0 
28.1818 11.5318 0 
27.7667 10.71 0 
26.625 8 0 
28.255 11.745 0 
27.4664 10.1502 0 
28.2402 11.745 0 
28.2256 11.745 0 
28.2059 11.745 0 
27.978 11.3186 0 
26.7234 8.45455 0 
27.0259 9.25 0 
27.5342 10.4266 0 
28.1863 11.745 0 
27.1442 9.59091 0 
28.0516 11.5318 0 
28.1598 11.745 0 
27.3959 10.2339 0 
28.1334 11.745 0 
27.2793 10 0 
27.2714 10.0098 0 
27.2635 10.0196 0 
27.7086 10.9775 0 
27.6431 10.8438 0 
28.0975 11.745 0 
27.8643 11.3186 0 
27.4661 10.5042 0 
27.2518 10.0341 0 
27.2401 10.0485 0 
28.0617 11.745 0 
26.7648 8.90909 0 
27.5255 10.71 0 
27.7353 11.1481 0 
27.2231 10.0695 0 
28.0133 11.745 0 
27.2061 10.0905 0 
27.8791 11.5318 0 
27.2986 10.3489 0 
27.1818 10.1203 0 
27.9651 11.745 0 
27.3758 10.6071 0 
27.0077 9.79545 0 
27.7174 11.3186 0 
27.1576 10.1502 0 
25 0 0 
27.5193 10.9775 0 
27.9003 11.745 0 
27.1236 10.1921 0 
26.25 8 0 
27.9939 12.0061 0 
25.65 6 0 
27.8359 11.745 0 
26.8136 9.59091 0 
27.0896 10.2339 0 
27.9626 12.0061 0 
27.2853 10.71 0 
25.2 4 0 
27.5713 11.3186 0 
27.9218 12.0061 0 
26.4998 8.90909 0 
27.167 10.5042 0 
27.6541 11.5318 0 
27.0427 10.2914 0 
27.7503 11.745 0 
26.9033 10 0 
27.8677 12.0061 0 
26.8882 10.0196 0 
26.8659 10.0485 0 
26.9958 10.3489 0 
27.2836 10.9775 0 
27.6652 11.745 0 
27.3609 11.1481 0 
27.7955 12.0061 0 
26.499 9.25 0 
[...]
POINT_DATA 1909
SCALARS phi float 1
LOOKUP_TABLE default
VECTORS Displacement float
0 0 0
0 0 0
0 -0.00116388 0
0 0 0
0 -0.000523876 0
0 0 0
0 0.0017397 0
0 0 0
0 0 0
0 0.00548436 0
0.0104655 -0.000472311 0
0 0 0
0 0.0105313 0
0.0199593 0.00363313 0
0 0 0
0.0140754 -0.000469959 0
0 0.0166006 0
0 0 0
0.0266762 0.0118495 0
0.0179049 -0.000547817 0
0 0 0
0.0304577 0.0226771 0
0 0 0
0.0218426 -0.000747694 0
0 0 0
0.040976 0.00255247 0
0.025668 -0.00104727 0
0.0488563 0.00566739 0
0 0 0
0.0439316 0.00232219 0
0.0545345 0.00968244 0
0.0584552 0.0143039 0
0.0467041 0.00208294 0
0.061117 0.019088 0
0 0 0
0.0494205 0.00172504 0
0.0628867 0.0239326 0
0.0291898 -0.00141909 0
0.0519913 0.00134389 0
0.0640954 0.0287526 0
0 0 0
0.0544195 0.000902161 0
0.0706444 0.00799385 0
0.0566934 0.000435737 0
0.0781411 0.0155254 0
0.0322669 -0.00184802 0
0 0 0
0.0761534 0.00583339 0
0.0817424 0.0242241 0
0.0588039 -6.99151e-05 0
0.0821841 0.0336527 0
0.060743 -0.000600236 0
0 0 0
0.0805286 0.00390191 0
0.0625137 -0.00115983 0
0.0347902 -0.00233341 0
0.0841791 0.00194134 0
0.0641028 -0.00174922 0
0 0 0
0.0992374 0.008517 0
0.102146 0.0106044 0
0.0655194 -0.00236233 0
0.101002 0.00712186 0
0.105045 0.0130023 0
0.0871717 -0.00010529 0
0.106828 0.0154768 0
0.106414 0.0118118 0
0.108234 0.0187558 0
0.108662 0.0177618 0
0.102549 0.00576979 0
0.10851 0.0135046 0
0.10845 0.0217791 0
0.109082 0.0170129 0
0.107642 0.0106444 0
0.108866 0.0205499 0
0.105452 0.00772532 0
0.1095 0.0163572 0
0.108232 0.0253765 0
0.109436 0.0193629 0
0.108441 0.0254581 0
0.123437 0.0308629 0
0.109886 0.0157781 0
0.108673 0.0254507 0
0.131108 0.0332875 0
0.123 0.0305281 0
0.109021 0.025306 0
0.130634 0.0329884 0
0.132009 0.0331003 0
0.130099 0.0325961 0
0.109389 0.0251357 0
0.12926 0.0319892 0
0.132017 0.0327448 0
0.122344 0.029666 0
0.131597 0.032417 0
0.110206 0.0182563 0
0.110293 0.0152178 0
0.109901 0.0246446 0
0.131989 0.0324256 0
0.128417 0.0313454 0
0.131959 0.0321093 0
0.132119 0.0322853 0
0.110406 0.0241761 0
0.13066 0.0313552 0
0.0667456 -0.00301585 0
0.127393 0.0303353 0
0.131852 0.0316542 0
0.121664 0.0280818 0
0.132049 0.0316473 0
0.131681 0.0311546 0
0.132035 0.0317661 0
0.126471 0.0293762 0
0.0366543 -0.00288463 0
0.111066 0.0233444 0
0.132 0.0314363 0
0.110684 0.0147051 0
0.108778 0.00952938 0
0 0 0
0.131337 0.0303728 0
0.131961 0.0310942 0
0.129223 0.0296212 0
0.110007 0.0118366 0
0.131911 0.0306218 0
0.111179 0.0171867 0
0.125476 0.0280002 0
0.131896 0.0305666 0
0.11168 0.0225773 0
0.131951 0.0310014 0
0.13086 0.0295625 0
0.131835 0.0300303 0
0.121081 0.0258285 0
0.131877 0.030283 0
0.124657 0.0267768 0
0.131523 0.0290559 0
0.130137 0.0283742 0
0.131738 0.0292574 0
0.111143 0.014178 0
0.13186 0.0301867 0
0.112449 0.0215497 0
0.127434 0.0271667 0
0.131815 0.0298186 0
0.13176 0.0292142 0
0.131643 0.0285043 0
0.131771 0.0294526 0
0.129352 0.0272508 0
0.104025 0.00442264 0
0.123808 0.0252185 0
0.131707 0.0289208 0
0.131457 0.0274971 0
0.113132 0.0206026 0
0.131644 0.0284029 0
0.13063 0.0269498 0
0.131745 0.0290333 0
0.131599 0.0277433 0
0.120637 0.0231962 0
0.112312 0.0160469 0
0.111599 0.0136817 0
0.128317 0.025769 0
0.131558 0.0276774 0
0.12321 0.0238794 0
0.131666 0.0283213 0
0.131211 0.0265466 0
0.125545 0.024275 0
0.131478 0.0269904 0
0.131552 0.0273252 0
0.113957 0.019512 0
0.131649 0.0279189 0
0.127364 0.0244418 0
0.13136 0.0258838 0
0.131609 0.0275756 0
0.130772 0.0253199 0
0.131374 0.0260705 0
0.13157 0.0272418 0
0.109814 0.00844956 0
0.122606 0.0223081 0
0.129116 0.0243916 0
0.112145 0.0131404 0
0.131515 0.0267653 0
0.1314 0.0260065 0
0.131287 0.0252251 0
0.131463 0.026308 0
0.130222 0.0241863 0
0.114662 0.0184908 0
0.126249 0.0228214 0
0.120365 0.0204532 0
0.131393 0.0256776 0
0.131574 0.0264883 0
0.111454 0.0103045 0
0.122249 0.0209557 0
0.131159 0.0241477 0
0.131327 0.0250827 0
0.113584 0.0147807 0
0.130845 0.0236959 0
0.131506 0.0258718 0
0.131218 0.0243695 0
0.123919 0.0212454 0
0.112692 0.0126158 0
0.1294 0.0227711 0
0.125371 0.0214155 0
0.131239 0.0242913 0
0.131412 0.0250269 0
0.131024 0.0231724 0
0.115488 0.0173948 0
0.127171 0.0215259 0
0.131495 0.0251739 0
0.131156 0.0235579 0
0.131467 0.0248908 0
0.121857 0.0194385 0
0.131289 0.0239159 0
0.13144 0.0246161 0
0.128549 0.0214889 0
0.131401 0.0242252 0
0.131022 0.02245 0
0.130757 0.0219714 0
0.131053 0.0226114 0
0.131364 0.0238496 0
0.124448 0.0198028 0
0.113327 0.0120063 0
0.129737 0.0212279 0
0.116182 0.0163456 0
0.110786 0.00738848 0
0.131312 0.0233304 0
0.131136 0.0225205 0
0.120252 0.0177296 0
0.108162 0.00506168 0
0.130964 0.0217511 0
0.131263 0.0228373 0
0.12167 0.0181044 0
0.131482 0.0235946 0
0.13039 0.0208744 0
0.127478 0.0199475 0
0.105351 0.00306009 0
0.122794 0.0182847 0
0.131433 0.0230978 0
0.131197 0.0221753 0
0.115 0.0133273 0
0.123826 0.0184095 0
0.11396 0.0114049 0
0.130854 0.0206751 0
0.131366 0.0224159 0
0.131136 0.0215547 0
0.130706 0.0202942 0
0.125284 0.0185435 0
0.130955 0.0208507 0
0.116988 0.0152342 0
0.12978 0.0195503 0
0.112885 0.00879643 0
0.126568 0.0185904 0
0.131278 0.0215089 0
0.131054 0.0207484 0
0.131453 0.022165 0
0.121451 0.0166375 0
0.0894956 -0.00225236 0
0.130758 0.019712 0
0.131435 0.0219408 0
0.131418 0.0217222 0
0.128019 0.0185211 0
0.131393 0.0214109 0
0.130977 0.0200027 0
0.123255 0.0168736 0
0.13137 0.0211093 0
0.131166 0.0203486 0
0.114684 0.0106822 0
0.129078 0.018342 0
0.111704 0.00634216 0
0.131336 0.0206903 0
0.130766 0.0189469 0
0.0677913 -0.00368911 0
0.117682 0.0141518 0
0.13058 0.0185552 0
0.125609 0.0170246 0
0.131304 0.0202881 0
0.120379 0.0150484 0
0.130879 0.0190647 0
0.121427 0.0153179 0
0.129924 0.0179529 0
0.131258 0.0197439 0
0.122229 0.0154365 0
0.131496 0.0204904 0
0.13103 0.018929 0
0.122947 0.0155149 0
0.131467 0.0200933 0
0.131214 0.0192286 0
0.130789 0.0182158 0
0.11658 0.0115983 0
0.12817 0.0169039 0
0.130338 0.0175119 0
0.123976 0.0156038 0
0.115393 0.00996085 0
0.131426 0.0195461 0
0.131155 0.0185533 0
0.124956 0.0156545 0
0.118518 0.0129657 0
0.131373 0.0188119 0
0.130684 0.017181 0
0.126248 0.0156641 0
0.1311 0.0179263 0
0.130534 0.0168756 0
0.106573 0.00167839 0
0.121444 0.0138492 0
0.13087 0.0172842 0
0.114304 0.00721955 0
0.131528 0.0189671 0
0.112583 0.00528223 0
0.129916 0.0162691 0
0.127367 0.0155988 0
0.131518 0.0187867 0
0.122751 0.0139974 0
0.131304 0.017865 0
0.131507 0.0186106 0
0.13103 0.0171346 0
0.131493 0.018361 0
0.116194 0.00908093 0
0.1306 0.0162535 0
0.131479 0.0181192 0
0.12856 0.0153907 0
0.124404 0.0140712 0
0.13146 0.0177838 0
0.130971 0.0164124 0
0.131442 0.017463 0
0.119279 0.0117911 0
0.131222 0.0167023 0
0.120917 0.0123108 0
0.129391 0.015095 0
0.121617 0.0124716 0
0.131418 0.017029 0
0.122195 0.0125371 0
0.126547 0.0140163 0
0.130703 0.0154506 0
0.130469 0.0151242 0
0.131396 0.0166197 0
0.122715 0.0125753 0
0.1309 0.0155151 0
0.13168 0.0172199 0
0.116959 0.00819563 0
0.123432 0.0126071 0
0.130022 0.0145915 0
0.131666 0.0169037 0
0.118334 0.00947247 0
0.131369 0.0160814 0
0.113405 0.00422034 0
0.124117 0.0126166 0
0.110359 0.0023377 0
0.131127 0.0153298 0
0.131647 0.0164749 0
0.131346 0.015577 0
0.130833 0.014675 0
0.125065 0.0126009 0
0.12871 0.0136255 0
0.130317 0.014051 0
0.131623 0.0159054 0
0.120239 0.0104188 0
0.125968 0.0125497 0
0.115695 0.00550341 0
0.131318 0.0149256 0
0.121892 0.0108582 0
0.107639 0.000281322 0
0.131594 0.0151689 0
0.127101 0.012413 0
0.12281 0.0109125 0
0.131787 0.0156504 0
0.117806 0.00711068 0
0.130749 0.0136085 0
0.130494 0.0133062 0
0.131289 0.0143013 0
0.131785 0.0155113 0
0.131783 0.0153757 0
0.131018 0.0136784 0
0.131782 0.0151864 0
0.12397 0.0108979 0
0.128063 0.0122081 0
0.130035 0.0127014 0
0.13178 0.0150022 0
0.131562 0.0142316 0
0.114187 0.0031253 0
0 0 0
0.13178 0.0147485 0
0.131253 0.0134944 0
0.131779 0.0145013 0
0.130655 0.0125772 0
0.121138 0.00906601 0
0.0686352 -0.00441948 0
0.12903 0.0118276 0
0.1255 0.0107766 0
0.121864 0.00925653 0
0.13178 0.0141658 0
0.122255 0.00931276 0
0.122638 0.00932061 0
0.13178 0.013838 0
0.131213 0.0127066 0
0.122998 0.00931566 0
0.118585 0.00601417 0
0.131526 0.0130293 0
0.129668 0.011376 0
0.123501 0.00929541 0
0.131779 0.013395 0
0.127394 0.0104458 0
0.123978 0.0092597 0
0.132062 0.0139309 0
0.120191 0.00682024 0
0.130866 0.0116237 0
0.130514 0.0112724 0
0.131777 0.0129595 0
0.132063 0.0136827 0
0.124632 0.00918973 0
0.131154 0.0116863 0
0.117024 0.00358592 0
0.132064 0.0133447 0
0.130121 0.0106944 0
0.114899 0.00201801 0
0.125264 0.00910106 0
0.131769 0.0123748 0
0.108575 -0.00113457 0
0.132064 0.0128836 0
0.122173 0.0073691 0
0.131472 0.011479 0
0.126117 0.00894853 0
0.13176 0.0117993 0
0.122765 0.00742871 0
0.129176 0.00970841 0
0.13109 0.01069 0
0.0911307 -0.00452326 0
0.119428 0.00467733 0
0.130366 0.00999518 0
0.132065 0.0122562 0
0.123351 0.00738828 0
0.126916 0.00876088 0
0.131747 0.0110358 0
0.124146 0.00728913 0
0.132287 0.0123506 0
0.112124 -0.000431251 0
0.132289 0.0122314 0
0.127882 0.00844497 0
0.132065 0.0114091 0
0.13229 0.0121135 0
0.132293 0.0119503 0
0.115563 0.000862093 0
0.130999 0.00942082 0
0.132295 0.0117885 0
0.130629 0.00907757 0
0.131732 0.0102858 0
0.1252 0.0070883 0
0.132298 0.0115643 0
0.128678 0.00806925 0
0.131387 0.00950604 0
0.132301 0.0113419 0
0.130149 0.00841003 0
0.123068 0.00566891 0
0.123223 0.00564807 0
0.132305 0.0110356 0
0.132064 0.0102816 0
0.120168 0.00332449 0
0.123378 0.00562526 0
0.123585 0.00558187 0
0.132309 0.010732 0
0.131708 0.00931045 0
0.126573 0.0067195 0
0.123804 0.00553996 0
0.129437 0.00748525 0
0.1309 0.00817992 0
0.124119 0.00547365 0
0.118247 0.00140524 0
0.132314 0.0103173 0
0.10936 -0.00256969 0
0.124443 0.00540581 0
0.132319 0.00990704 0
0.124878 0.0052933 0
0.12197 0.00351279 0
0.0377324 -0.00351173 0
0.131682 0.00835322 0
0.116144 -0.000310501 0
0.129908 0.00684916 0
0.132561 0.0104829 0
0.132058 0.00880889 0
0.12531 0.00517301 0
0.132325 0.00935394 0
0.128191 0.00606249 0
0.132564 0.0102431 0
0.0692836 -0.00516277 0
0.125889 0.00498451 0
0.132567 0.00991977 0
0.131258 0.00704176 0
0.13233 0.00880766 0
0.130764 0.00662893 0
0.132572 0.00948006 0
0.120941 0.00168833 0
0.126454 0.00478115 0
0.123926 0.00356805 0
0.131643 0.00713185 0
0.130275 0.00596731 0
0.124139 0.00349049 0
0.132336 0.00808329 0
0.132579 0.00888233 0
0.124458 0.00337239 0
0.127185 0.00446944 0
0.132041 0.00692204 0
0.129584 0.0049327 0
0.124939 0.00319768 0
0.116669 -0.00154685 0
0.132341 0.00736857 0
0.127874 0.00413025 0
0.131601 0.00593497 0
0.13259 0.0080762 0
0.130627 0.00511053 0
0.110016 -0.00403759 0
0.132675 0.00866929 0
0.12562 0.00292802 0
0.132677 0.00854657 0
0.132678 0.00842483 0
0.132681 0.00826132 0
0.132344 0.00643686 0
0.113418 -0.00329582 0
0.119301 -0.00110227 0
0.128643 0.00361599 0
0.132684 0.00809902 0
0.121576 3.13987e-05 0
0.132602 0.00700212 0
0.132688 0.0078788 0
0.126537 0.00250783 0
0.132692 0.00766016 0
0.124558 0.00144633 0
0.124654 0.00140528 0
0.12475 0.001364 0
0.131538 0.00444015 0
0.131071 0.00402998 0
0.132697 0.00736284 0
0.132344 0.00551858 0
0.129266 0.00305563 0
0.124891 0.00130245 0
0.125031 0.00123994 0
0.132703 0.00706759 0
0.117103 -0.00280079 0
0.130447 0.00326418 0
0.131999 0.00455379 0
0.125234 0.00114725 0
0.13271 0.00666783 0
0.125435 0.00105215 0
0.132615 0.00559162 0
0.127697 0.00185139 0
0.125719 0.000912019 0
0.132717 0.00627077 0
0.129813 0.00225073 0
0.123409 -0.0005609 0
0.132336 0.00434357 0
0.125999 0.000766615 0
0 0 0
0.131469 0.00297762 0
0.132725 0.0057379 0
0.126384 0.000553638 0
0.110521 -0.00552973 0
0.132674 0.00648909 0
0.0920505 -0.00694518 0
0.132732 0.00520867 0
0.122166 -0.00195652 0
0.126758 0.000329984 0
0.132676 0.00623006 0
0.130277 0.00146026 0
0.0697131 -0.00598715 0
0.132319 0.00318636 0
0.132679 0.00589281 0
0.117469 -0.0041343 0
0.12899 0.000824859 0
0.132615 0.00377011 0
0.127253 4.06905e-06 0
0.132739 0.00450705 0
0.125119 -0.00107341 0
0.132682 0.00544546 0
0.125284 -0.00116431 0
0.125526 -0.00130201 0
0.12772 -0.000341741 0
0.131359 0.0011898 0
0.132744 0.00381041 0
0.131892 0.00164499 0
0.132685 0.00484703 0
0.120097 -0.00400349 0
0.125867 -0.00150912 0
0.130789 0.000447521 0
0.132279 0.0017329 0
0.128295 -0.000840691 0
0.132689 0.0040461 0
0.132744 0.00290042 0
0.126338 -0.00181968 0
0.130061 -0.000698132 0
0.117737 -0.00548459 0
0.11421 -0.00627898 0
0.12257 -0.00396971 0
0.132577 0.0014588 0
0.128806 -0.0013701 0
0.110889 -0.00705732 0
0.132365 0.00430106 0
0.12696 -0.00228505 0
0.132737 0.00199695 0
0.132367 0.00416165 0
0.13269 0.00298015 0
0.131218 -0.000568148 0
0.132368 0.00402298 0
0.132213 0.00029884 0
0.13237 0.00384432 0
0.132372 0.00366647 0
0.132375 0.00343288 0
0.125433 -0.00362298 0
0.12936 -0.00209635 0
0.125504 -0.00367284 0
0.125575 -0.00372318 0
0.132377 0.00320015 0
0.125678 -0.00379806 0
0.127735 -0.00298082 0
0.132715 0.000835538 0
0.12578 -0.00387388 0
0.132379 0.00289111 0
0.125926 -0.00398537 0
0.132681 0.00157571 0
0.132382 0.00258301 0
0.12607 -0.00409874 0
0.126272 -0.00426344 0
0.117919 -0.00693148 0
0.129823 -0.00284255 0
0.132383 0.00217251 0
0.131635 -0.00188682 0
0.132097 -0.00147972 0
0.126468 -0.0044318 0
0.132677 -0.000318482 0
0.132384 0.00176306 0
0.131006 -0.0027141 0
0.124166 -0.00551222 0
0.126735 -0.00467337 0
0.132442 -0.00143134 0
0.128618 -0.00400725 0
0.132383 0.00121921 0
0.122821 -0.00635414 0
0.126992 -0.00492163 0
0.111103 -0.00861145 0
0.132643 -0.000250933 0
0.0699234 -0.00680716 0
0.132379 0.000676572 0
0.130328 -0.00383835 0
0.120503 -0.00736702 0
0.127328 -0.00527301 0
0.132605 -0.00177918 0
0.131687 0.00161631 0
0.131932 -0.00324705 0
0.13237 -3.84461e-05 0
0.131689 0.00130274 0
0.127644 -0.00563529 0
0.117999 -0.00839383 0
0.13169 0.000911141 0
0.125512 -0.00663835 0
0.12563 -0.00674491 0
0.132356 -0.000752035 0
0.130734 -0.00486348 0
0.12954 -0.00547004 0
0.131689 0.000409465 0
0.125802 -0.00690445 0
0.128036 -0.00614044 0
0.132504 -0.00323374 0
0.126044 -0.00714069 0
0.114489 -0.0093832 0
0.132542 -0.00259305 0
0.131686 -0.00024388 0
0.13233 -0.00168155 0
0.128396 -0.00666062 0
0.126375 -0.00748721 0
0.0922262 -0.00954556 0
0.131681 -0.00542386 0
0.122832 -0.008759 0
0.131677 -0.00110145 0
0.132119 -0.00501367 0
0.111175 -0.0101977 0
0.132294 -0.00260936 0
0.131115 -0.00621189 0
0.126811 -0.00799099 0
0.128825 -0.00737234 0
0.117967 -0.00996952 0
0.13234 -0.00504805 0
0.131655 -0.0022278 0
0 0 0
0.132234 -0.00380117 0
0.130368 -0.00749274 0
0.130619 -0.00119771 0
0.127358 -0.00871683 0
0.129198 -0.00810944 0
0.13062 -0.00137585 0
0.130621 -0.00155338 0
0.0378732 -0.00420924 0
0.125312 -0.00964515 0
0.130621 -0.00177102 0
0.13232 -0.00555194 0
0.125364 -0.00970099 0
0.125415 -0.00975707 0
0.130621 -0.001988 0
0.131365 -0.00760809 0
0.125489 -0.00984025 0
0.131608 -0.0036996 0
0.132157 -0.00499087 0
0.130621 -0.00226118 0
0.125563 -0.00992396 0
0.13213 -0.00686005 0
0.125668 -0.0100463 0
0.13062 -0.00253366 0
0.125772 -0.0101698 0
0.129604 -0.00910147 0
0.130617 -0.00288322 0
0.128004 -0.00975059 0
0.125916 -0.0103477 0
0.120348 -0.0112502 0
0.0698871 -0.00773819 0
0.130614 -0.00323203 0
0.117826 -0.011559 0
0.126057 -0.0105278 0
0.111092 -0.0118093 0
0.130607 -0.00368434 0
0.126248 -0.0107837 0
0.132036 -0.00649501 0
0.122579 -0.0115439 0
0.12387 -0.0113696 0
0.130599 -0.00413583 0
0.126432 -0.0110437 0
0.131515 -0.00560427 0
0.129927 -0.0101292 0
0.130585 -0.00472324 0
0.131496 -0.00941993 0
0.126673 -0.011408 0
0.131819 -0.00908303 0
0.114254 -0.0126025 0
0.128689 -0.0112065 0
0.130921 -0.0102523 0
0.130567 -0.00530968 0
0.126902 -0.0117798 0
0.131888 -0.00799609 0
0.131892 -0.00923076 0
0.130539 -0.0060705 0
0.127191 -0.0122938 0
0.130221 -0.011487 0
0.117549 -0.0132759 0
0.12892 -0.00469315 0
0.13134 -0.00803637 0
0.124787 -0.0130832 0
0.130505 -0.00682996 0
0.128921 -0.00510796 0
0.124874 -0.0131985 0
0.127456 -0.0128215 0
0.125001 -0.0133701 0
0.110868 -0.0134485 0
0.12892 -0.0056021 0
0.131667 -0.00986027 0
0.131449 -0.0113059 0
0.12518 -0.0136224 0
0.130452 -0.00780753 0
0.128916 -0.0062076 0
0.127768 -0.0135407 0
0.129306 -0.0132284 0
0.125424 -0.0139887 0
0.122063 -0.0143266 0
0.130395 -0.0128951 0
0.128905 -0.00696599 0
0.130389 -0.00878288 0
0.125746 -0.0145145 0
0.12804 -0.0142813 0
0.131407 -0.0117187 0
0.128883 -0.00792961 0
0.117155 -0.0150026 0
0.131027 -0.0110907 0
0.130294 -0.0100235 0
0.126149 -0.0152618 0
0.0696021 -0.00862525 0
0.0916287 -0.0123446 0
0.13093 -0.0139692 0
0.128332 -0.0152748 0
0.119462 -0.0156738 0
0.128841 -0.00916218 0
0.13115 -0.0137148 0
0.130447 -0.0147217 0
0.110493 -0.0151086 0
0.130183 -0.0112601 0
0.126617 -0.0163138 0
0.131036 -0.0139797 0
0.123966 -0.0164814 0
0.126823 -0.0084162 0
0.124004 -0.0165406 0
0.124042 -0.0166 0
0.128555 -0.0163013 0
0.113516 -0.0159262 0
0.126823 -0.00865698 0
0.129673 -0.0159918 0
0.124098 -0.0166879 0
0.128764 -0.0107384 0
0.124154 -0.0167761 0
0.126823 -0.00889724 0
0.124233 -0.0169048 0
0.126822 -0.00917724 0
0.124311 -0.0170343 0
0.130021 -0.0128094 0
0.12682 -0.00945665 0
0.124419 -0.0172203 0
0.126817 -0.00979189 0
0.124524 -0.017408 0
0.116601 -0.016866 0
0.126812 -0.0101264 0
0.121206 -0.0174613 0
0.13033 -0.0166186 0
0.124667 -0.0176736 0
0.130498 -0.0148508 0
0.126805 -0.0105374 0
0.127108 -0.0177792 0
0.124805 -0.0179426 0
0.128745 -0.017655 0
0.128629 -0.0127417 0
0.126796 -0.0109474 0
0.129834 -0.0143509 0
0.130609 -0.0162275 0
0.122297 -0.0180039 0
0 0 0
0.124985 -0.0183177 0
0.126783 -0.0114597 0
0.109983 -0.0167906 0
0.125154 -0.018699 0
0.126767 -0.0119708 0
0.126743 -0.0126157 0
0.125366 -0.0192232 0
0.12883 -0.0190564 0
0.129568 -0.0162477 0
0.126714 -0.0132588 0
0.128401 -0.0152592 0
0.125558 -0.019758 0
0.127526 -0.0197966 0
0.129963 -0.0190321 0
0.115929 -0.0187306 0
0.126673 -0.0140725 0
0.130026 -0.0188971 0
0.129523 -0.0197042 0
0.06903 -0.00964883 0
0.125784 -0.0204827 0
0.122722 -0.0202612 0
0.126624 -0.0148834 0
0.12279 -0.0203815 0
0.129266 -0.01813 0
0.122888 -0.0205603 0
0.123906 -0.0129681 0
0.128793 -0.0208702 0
0.129651 -0.0193711 0
0.123026 -0.0208222 0
0.125976 -0.0212252 0
0.126554 -0.0159064 0
0.123907 -0.0135305 0
0.120071 -0.0205681 0
0.109336 -0.0184843 0
0.123213 -0.0212005 0
0.123904 -0.0141698 0
0.112293 -0.0193356 0
0.128025 -0.0183736 0
0.11771 -0.020605 0
0.126473 -0.0169247 0
0.123458 -0.0217404 0
0.126174 -0.0222161 0
0.123895 -0.0149165 0
0.129367 -0.0215379 0
0.12771 -0.0225356 0
0.12885 -0.0203986 0
0.123877 -0.0158098 0
0.123762 -0.0225016 0
0.115068 -0.020735 0
0.128604 -0.0227487 0
0.126357 -0.0181987 0
0.126317 -0.0232349 0
0.0902295 -0.0153251 0
0.123844 -0.016899 0
0.126225 -0.0194648 0
0.124111 -0.0235629 0
0.0369424 -0.00493536 0
0.128383 -0.0226414 0
0.123786 -0.0182435 0
0.108563 -0.0201906 0
0.126418 -0.0245724 0
0.127431 -0.0221512 0
0.12604 -0.0210293 0
0.128498 -0.0245915 0
0.121162 -0.0239598 0
0.121192 -0.0240209 0
0.121221 -0.0240822 0
0.121265 -0.0241728 0
0.128172 -0.02513 0
0.121309 -0.0242637 0
0.124466 -0.0250264 0
0.128364 -0.0246554 0
0.121372 -0.024396 0
0.123689 -0.0199118 0
0.121433 -0.0245289 0
0.121519 -0.0247195 0
0.118528 -0.0239699 0
0.114099 -0.0227276 0
0.120634 -0.0177885 0
0.12643 -0.0259508 0
0.121603 -0.0249113 0
0.0681913 -0.0105597 0
0.12583 -0.0225804 0
0.120634 -0.0181136 0
0.127412 -0.0261906 0
0.121715 -0.025182 0
0.120632 -0.0184382 0
0.12776 -0.0252822 0
0.121823 -0.0254553 0
0.120629 -0.0187995 0
0.120625 -0.0191602 0
0.121964 -0.0258352 0
0.12353 -0.0219791 0
0.120619 -0.0195725 0
0.119251 -0.0252293 0
0.122096 -0.0262197 0
0.120611 -0.0199842 0
0.124744 -0.027021 0
0.125542 -0.0244664 0
0.110615 -0.0228005 0
0.1206 -0.0204664 0
0.107673 -0.0218938 0
0.127529 -0.0275917 0
0.126322 -0.0277274 0
0.122261 -0.0267462 0
0.120586 -0.0209475 0
0.126527 -0.0266265 0
0.122409 -0.027281 0
0.120567 -0.0215229 0
0.127069 -0.02788 0
0 0 0
0.120544 -0.0220967 0
0.123274 -0.0245222 0
0.125221 -0.0263304 0
0.12258 -0.0280023 0
0.120512 -0.0227933 0
0.112913 -0.0248531 0
0.126079 -0.0295591 0
0.120476 -0.0234876 0
0.122722 -0.0287375 0
0.11498 -0.0259594 0
0.124801 -0.0297021 0
0.120425 -0.024338 0
0.119117 -0.0279419 0
0.119175 -0.0280644 0
0.119257 -0.028246 0