# vtk DataFile Version 3.0
File generated from DClib
ASCII

DATASET UNSTRUCTURED_GRID
POINTS 922 float
50 0 0 
50 1.66667 0 
47.9167 0 0 
50 3.33333 0 
45.8333 0 0 
50 5 0 
43.75 0 0 
50 6.66667 0 
43 2 0 
41.6667 0 0 
50 8.33333 0 
43 4.66667 0 
50 10 0 
43 7.33333 0 
39.7917 2 0 
39.5833 0 0 
43 10 0 
37.5 0 0 
36.5833 2 0 
36 4 0 
35.4167 0 0 
36 5 0 
36 6 0 
34.875 4 0 
36 7 0 
36 8 0 
36 9 0 
33.3333 0 0 
33.75 4 0 
33.375 2 0 
36 10 0 
32.625 4 0 
33 6 0 
33 7.38776 0 
31.25 0 0 
31.5 4 0 
33 8.72989 0 
31.25 6 0 
33 10 0 
30.1667 2 0 
30.375 4 0 
29.1667 0 0 
29.25 4 0 
29.5 6 0 
30 8 0 
30 8.38776 0 
30 8.77551 0 
30 9.11765 0 
29.375 8 0 
30 9.45978 0 
28.125 4 0 
30 9.72989 0 
29.5436 8.77551 0 
29.7872 9.45978 0 
30 10 0 
29.9616 10.0384 0 
29.9232 10.0768 0 
29.8781 10 0 
29.7038 9.72989 0 
29.5732 9.45978 0 
29.8635 10.1365 0 
29.8013 10.0768 0 
29.7562 10 0 
29.3407 9.11765 0 
29.8038 10.1962 0 
29.7179 10.0384 0 
29.0879 8.77551 0 
29.6796 10.0768 0 
28.75 8 0 
29.5896 10 0 
29.682 10.1962 0 
29.3212 9.45978 0 
29.7137 10.2863 0 
28.8513 8.38776 0 
29.62 10.1365 0 
29.5133 10.0768 0 
29.5605 10.1962 0 
29.318 9.72989 0 
29.6237 10.3763 0 
29.423 10 0 
27.0833 0 0 
29.3851 10.0384 0 
29.4708 10.2863 0 
29.0681 9.45978 0 
29.5022 10.3763 0 
29.3471 10.0768 0 
29.3947 10.1962 0 
29.4922 10.5078 0 
27.75 6 0 
29.2882 10.1365 0 
29.2009 10 0 
29.3811 10.3763 0 
28.6181 8.77551 0 
26.9583 2 0 
29.2293 10.1962 0 
29.1257 10.0768 0 
29.3606 10.6394 0 
29.2162 10.3763 0 
28.6273 9.11765 0 
28.7679 9.45978 0 
29.1405 10.2863 0 
29.25 10.5078 0 
28.9787 10 0 
28.125 8 0 
28.8217 9.72989 0 
29.2395 10.6394 0 
28.9416 10.0384 0 
29.009 10.1962 0 
27 4 0 
29.0518 10.3763 0 
28.9045 10.0768 0 
29.119 10.6394 0 
28.8468 10.1365 0 
29.1744 10.8256 0 
28.4666 9.45978 0 
28.7892 10.1962 0 
28.69 10 0 
28.1489 8.77551 0 
28.9223 10.5078 0 
28.8333 10.3763 0 
28.9555 10.6394 0 
28.617 10.0768 0 
28.7024 10.2863 0 
28.9337 10.8256 0 
28.9882 11.0118 0 
28.7928 10.6394 0 
28.6156 10.3763 0 
28.5038 10.1962 0 
28.4012 10 0 
27.6992 8.38776 0 
28.8679 11.0118 0 
28.1088 9.45978 0 
28.3655 10.0384 0 
28.1935 9.72989 0 
27.5 8 0 
28.3298 10.0768 0 
28.5771 10.6394 0 
28.7485 11.0118 0 
28.489 10.5078 0 
27.8468 9.11765 0 
28.6098 10.8256 0 
28.2744 10.1365 0 
27.6621 8.77551 0 
28.3334 10.3763 0 
28.219 10.1962 0 
28.7333 11.2667 0 
28.5871 11.0118 0 
28.3626 10.6394 0 
28.0354 10 0 
28.1356 10.2863 0 
27.75 9.45978 0 
28.427 11.0118 0 
27.9662 10.0768 0 
28.0523 10.3763 0 
28.4949 11.2667 0 
28.184 10.8256 0 
28.0852 10.6394 0 
27.8587 10.1962 0 
28.2155 11.0118 0 
28.4783 11.5217 0 
27.9307 10.5078 0 
27.1759 8.77551 0 
25.875 4 0 
27.6697 10 0 
26.875 8 0 
27.6363 10.0384 0 
28.3594 11.5217 0 
27.6029 10.0768 0 
28.177 11.2667 0 
27.3262 9.45978 0 
27.4134 9.72989 0 
28.0057 11.0118 0 
27.6971 10.3763 0 
27.8094 10.6394 0 
28.2416 11.5217 0 
27.551 10.1365 0 
27.4992 10.1962 0 
26 6 0 
26.9863 9.11765 0 
28.0837 11.5217 0 
27.4211 10.2863 0 
27.7352 11.0118 0 
27.638 10.8256 0 
28.141 11.859 0 
27.2186 10 0 
27.9274 11.5217 0 
26.5417 8.38776 0 
27.3432 10.3763 0 
27.4616 10.6394 0 
26.6684 8.77551 0 
27.7621 11.2667 0 
26.9013 9.45978 0 
27.155 10.0768 0 
25 0 0 
26.25 8 0 
27.9066 11.859 0 
27.2294 10.5078 0 
27.467 11.0118 0 
27.7222 11.5217 0 
27.0563 10.1962 0 
27.1158 10.6394 0 
27.5191 11.5217 0 
26.7674 10 0 
26.9078 10.3763 0 
27.8036 12.1964 0 
26.7374 10.0384 0 
27.5976 11.859 0 
26.7074 10.0768 0 
27.1297 11.0118 0 
27.2334 11.2667 0 
26.1616 8.77551 0 
26.4044 9.45978 0 
27.6871 12.1964 0 
26.6608 10.1365 0 
26.9553 10.8256 0 
26.4658 9.72989 0 
27.2584 11.5217 0 
26.6142 10.1962 0 
27.5718 12.1964 0 
24.75 4 0 
26.544 10.2863 0 
26.6911 10.6394 0 
26.0333 9.11765 0 
25.625 8 0 
27.4193 12.1964 0 
26.7951 11.0118 0 
27.1983 11.859 0 
26.4737 10.3763 0 
27.0006 11.5217 0 
26.2261 10 0 
27.2684 12.1964 0 
26.3711 10.5078 0 
26.1706 10.0768 0 
25.9068 9.45978 0 
25.6301 8.77551 0 
27.3729 12.6271 0 
27.0723 12.1964 0 
26.5764 11.2667 0 
26.0842 10.1962 0 
26.2685 10.6394 0 
25.377 8.38776 0 
26.6777 11.5217 0 
26.3853 11.0118 0 
27.1446 12.6271 0 
26.8784 12.1964 0 
26.6935 11.859 0 
25.9539 10.3763 0 
26.1234 10.8256 0 
25 8 0 
25.6847 10 0 
26.3582 11.5217 0 
23.75 2 0 
25.6594 10.0384 0 
26.6314 12.1964 0 
25.634 10.0768 0 
26.8487 12.6271 0 
25.0992 8.77551 0 
25.3333 9.45978 0 
25.9784 11.0118 0 
25.5945 10.1365 0 
24.25 6 0 
25.7632 10.6394 0 
25.5549 10.1962 0 
26.9422 13.0578 0 
25.3422 9.72989 0 
25.4952 10.2863 0 
26.3874 12.1964 0 
26.8294 13.0578 0 
24.9782 9.11765 0 
25.968 11.5217 0 
25.4353 10.3763 0 
23.625 4 0 
26.7177 13.0578 0 
26.4709 12.6271 0 
26.0703 11.859 0 
25.7799 11.2667 0 
25.3477 10.5078 0 
26.5729 13.0578 0 
24.375 8 0 
26.0835 12.1964 0 
25.4927 11.0118 0 
25.0532 10 0 
24.5409 8.77551 0 
25.2597 10.6394 0 
26.4296 13.0578 0 
25.0081 10.0768 0 
24.7595 9.45978 0 
25.5816 11.5217 0 
24.9377 10.1962 0 
22.9167 0 0 
26.246 13.0578 0 
25.7833 12.1964 0 
25.1349 10.8256 0 
25.9977 12.6271 0 
24.2034 8.38776 0 
26.412 13.588 0 
24.831 10.3763 0 
26.0644 13.0578 0 
25.0097 11.0118 0 
25.3193 11.859 0 
26.1925 13.588 0 
25.1215 11.5217 0 
25.4183 12.1964 0 
23.75 8 0 
23.983 8.77551 0 
24.4216 10 0 
25.8356 13.0578 0 
24.6735 10.6394 0 
24.402 10.0384 0 
24.3824 10.0768 0 
24.1101 9.45978 0 
24.8375 11.2667 0 
24.3517 10.1365 0 
24.3209 10.1962 0 
25.4179 12.6271 0 
25.9145 13.588 0 
25.6093 13.0578 0 
24.2742 10.2863 0 
24.0443 9.72989 0 
23.8155 9.11765 0 
25.0573 12.1964 0 
24.2272 10.3763 0 
22.5 4 0 
24.4478 11.0118 0 
24.6646 11.5217 0 
24.158 10.5078 0 
25.3298 13.0578 0 
25.8819 14.1181 0 
25.5653 13.588 0 
24.0881 10.6394 0 
23.3961 8.77551 0 
25.7745 14.1181 0 
23.125 8 0 
23.7058 10 0 
25.6676 14.1181 0 
22.5 6 0 
24.6289 12.1964 0 
25.0535 13.0578 0 
23.9883 10.8256 0 
23.461 9.45978 0 
24.4349 11.859 0 
23.6731 10.0768 0 
25.5335 14.1181 0 
23.019 8.38776 0 
24.7229 12.6271 0 
23.6216 10.1962 0 
24.1341 11.5217 0 
25.1327 13.588 0 
23.8872 11.0118 0 
25.4 14.1181 0 
23.5426 10.3763 0 
24.7194 13.0578 0 
25.233 14.1181 0 
24.204 12.1964 0 
23.7472 11.2667 0 
22.8093 8.77551 0 
23.4243 10.6394 0 
22.5 8 0 
25.0671 14.1181 0 
24.3887 13.0578 0 
23.6052 11.5217 0 
24.6061 13.588 0 
22.9901 10 0 
25.2539 14.7461 0 
22.9769 10.0384 0 
24.8614 14.1181 0 
22.7421 9.45978 0 
22.9637 10.0768 0 
22.9429 10.1365 0 
21.375 4 0 
23.2515 11.0118 0 
22.5457 9.11765 0 
22.922 10.1962 0 
23.7117 12.1964 0 
25.046 14.7461 0 
23.9078 12.6271 0 
22.8899 10.2863 0 
24.6571 14.1181 0 
22.8574 10.3763 0 
22.5862 9.72989 0 
23.998 13.0578 0 
23.4145 11.859 0 
22.8089 10.5078 0 
22.1933 8.77551 0 
20.8333 0 0 
24.791 14.7461 0 
24.4076 14.1181 0 
21.875 8 0 
22.7595 10.6394 0 
23.0055 11.5217 0 
23.9777 13.588 0 
22.6878 10.8256 0 
21.822 8.38776 0 
23.2211 12.1964 0 
23.6104 13.0578 0 
24.1597 14.1181 0 
24.4776 14.7461 0 
22.6143 11.0118 0 
20.5417 2 0 
22.0242 9.45978 0 
22.2027 10 0 
22.1829 10.0768 0 
22.1513 10.1962 0 
24.6259 15.3741 0 
23.8624 14.1181 0 
22.5107 11.2667 0 
21.5771 8.77551 0 
24.5253 15.3741 0 
22.1017 10.3763 0 
24.0946 14.7461 0 
22.9704 12.6271 0 
24.4245 15.3741 0 
21.25 8 0 
23.1626 13.0578 0 
20.75 6 0 
22.404 11.5217 0 
22.0253 10.6394 0 
22.6655 12.1964 0 
24.3035 15.3741 0 
23.5669 14.1181 0 
23.2428 13.588 0 
20.25 4 0 
24.1821 15.3741 0 
22.2583 11.859 0 
21.9095 11.0118 0 
24.0354 15.3741 0 
23.6316 14.7461 0 
21.1769 9.11765 0 
22.7163 13.0578 0 
21.2482 9.45978 0 
23.2196 14.1181 0 
21.4154 10 0 
23.8883 15.3741 0 
21.4085 10.0384 0 
21.4016 10.0768 0 
21.3905 10.1365 0 
20.9332 8.77551 0 
21.3792 10.1962 0 
21.3616 10.2863 0 
22.108 12.1964 0 
20.625 8 0 
23.7106 15.3741 0 
21.3434 10.3763 0 
21.7377 11.5217 0 
21.3158 10.5078 0 
20.6106 8.38776 0 
22.874 14.1181 0 
20.9961 9.72989 0 
23.5323 15.3741 0 
21.2869 10.6394 0 
23.9109 16.0891 0 
23.0804 14.7461 0 
22.2122 13.0578 0 
21.2441 10.8256 0 
22.3997 13.588 0 
23.3184 15.3741 0 
21.91 12.6271 0 
23.7168 16.0891 0 
21.1989 11.0118 0 
22.4765 14.1181 0 
23.1037 15.3741 0 
20.2886 8.77551 0 
21.1336 11.2667 0 
20.4742 9.45978 0 
21.4902 12.1964 0 
23.4886 16.0891 0 
20 8 0 
20.5755 10 0 
20.5672 10.0768 0 
19.125 4 0 
21.0644 11.5217 0 
21.7064 13.0578 0 
20.5533 10.1962 0 
22.8492 15.3741 0 
20.5305 10.3763 0 
23.217 16.0891 0 
18.75 0 0 
22.4362 14.7461 0 
22.0799 14.1181 0 
20.9674 11.859 0 
20.493 10.6394 0 
22.5939 15.3741 0 
22.8917 16.0891 0 
20.4322 11.0118 0 
19 6 0 
20.8648 12.1964 0 
19.7252 9.11765 0 
21.4494 13.588 0 
19.6198 8.77551 0 
23.1959 16.8041 0 
19.375 8 0 
21.1471 13.0578 0 
22.2963 15.3741 0 
21.634 14.1181 0 
23.1028 16.8041 0 
19.3826 8.38776 0 
19.6592 9.45978 0 
23.0087 16.8041 0 
20.3354 11.5217 0 
22.5023 16.0891 0 
19.7357 10 0 
20.7266 12.6271 0 
22.9022 16.8041 0 
19.7337 10.0384 0 
19.7316 10.0768 0 
21.6986 14.7461 0 
19.7282 10.1365 0 
21.9981 15.3741 0 
19.7246 10.1962 0 
22.7943 16.8041 0 
19.7187 10.2863 0 
19.7123 10.3763 0 
19.7021 10.5078 0 
22.6703 16.8041 0 
21.1873 14.1181 0 
19.691 10.6394 0 
20.5814 13.0578 0 
22.5445 16.8041 0 
19.315 9.72989 0 
19.6735 10.8256 0 
20.1866 12.1964 0 
21.6575 15.3741 0 
18 4 0 
18.75 8 0 
22.04 16.0891 0 
18.9498 8.77551 0 
19.6542 11.0118 0 
22.3982 16.8041 0 
19.6249 11.2667 0 
22.2495 16.8041 0 
19.5925 11.5217 0 
20.6965 14.1181 0 
21.3165 15.3741 0 
18.8474 9.45978 0 
20.395 13.588 0 
22.076 16.8041 0 
20.8727 14.7461 0 
19.5453 11.859 0 
18.8678 10 0 
22.415 17.585 0 
18.8667 10.0768 0 
17.3333 2 0 
21.4999 16.0891 0 
21.8995 16.8041 0 
19.969 13.0578 0 
18.8645 10.1962 0 
18.8602 10.3763 0 
19.4934 12.1964 0 
18.125 8 0 
22.2346 17.585 0 
20.9365 15.3741 0 
18.8517 10.6394 0 
21.6943 16.8041 0 
18.261 8.77551 0 
18.1362 8.38776 0 
20.2023 14.1181 0 
22.0344 17.585 0 
18.8358 11.0118 0 
18.2149 9.11765 0 
19.4214 12.6271 0 
21.4858 16.8041 0 
20.5569 15.3741 0 
21.8073 17.585 0 
18.807 11.5217 0 
20.8831 16.0891 0 
17.25 6 0 
21.246 16.8041 0 
19.3437 13.0578 0 
16.6667 0 0 
18.0163 9.45978 0 
16.875 4 0 
[...]
POINT_DATA 922
SCALARS phi float 1
LOOKUP_TABLE default
-77230.9
-1062.64
-45871.3
-1379.11
-26506.9
-1377.02
-18698.6
-1628.27
-80047.4
-9289.95
-3839.03
-1715.08
-8286.32
-1136.86
-32782.3
-4627.87
-7760.78
-1483.79
-19024.8
-88162.3
18.021
86.856
-227.697
-60744.2
-229.425
-304.067
-1845.32
200.198
-42302.5
-10947.7
-6386.19
-45422
-601.05
-1105.45
76.7591
-33652.6
-882.719
-3003.06
-8109.73
-7159.12
-37428.9
6.82334
-29397.8
-3979.61
-107.629
-202.753
-437.691
-436.887
-1775.59
-1387.93
-34458.8
-128.583
-4088.19
-1503.09
-121.056
17.2616
-229.267
-4255.14
-1754.01
-1663.6
-392.975
-222.764
-2928.86
-3515.36
-268.074
0.758855
-4408.19
-35.8453
-2421.56
-2124.24
-200.458
-1660.28
-564.622
-7101.13
-94.2563
-40.4015
-94.5401
-1927.2
-414.77
-2165.98
-97.3907
-15.1997
-214.087
-2287.87
-307
-15.3214
-93.0073
-674.486
-5755.21
-48.5387
-2049.83
-158.199
-4637.37
-6633.97
-53.864
-23.4386
-422.002
-161.437
-4540.95
-2402.48
-135.239
-333.313
-3100.96
-3323.66
-3086.76
-370.527
-24.8271
-67.5295
-28928.6
-126.842
-24.6802
-277.3
-55.7799
-638.857
-3503.62
-56.0129
-3302.91
-5345.57
-274.396
-158.331
-309.801
-25.1445
-132.407
-517.105
-447.15
-247.16
-130.003
-66.1125
-5666.82
-8217.62
-540.051
-3614.11
-20.7495
-5231.79
-4118.15
-20.2166
-312.265
-455.173
-267.72
-5944.26
-510.599
-50.8226
-5473.4
-155.79
-49.7098
-848.387
-587.932
-249.779
-5822.34
-119.494
-5082.89
-489.632
-20.0695
-116.078
-908.278
-539.587
-325.873
-55.012
-641.013
-768.396
-266.907
-6120.92
-34476.1
-9107.17
-4712.66
-13.8013
-1033.46
-13.3158
-987.966
-5025.08
-7809.41
-534.225
-137.439
-261.786
-880.598
-40.1338
-38.7515
-7411.78
-7131.81
-1169.25
-102.246
-690.369
-561.018
-1525.44
-9080.25
-987.431
-8489.64
-100.02
-318.608
-5891.73
-1070.2
-6668.63
-11.8845
-1192.08
-5226.63
-1701.13
-239.738
-552.293
-1289.52
-39.9184
-235.062
-1062.68
-13020.3
-110.569
-1576.4
-4.65113
-1867.12
-4.36995
-680.394
-1102.17
-6221.46
-6357.32
-2076.34
-23.0652
-519.751
-10378
-1358.15
-21.8781
-1739.36
-29626.5
-71.1322
-270.129
-7851.96
-5455.08
-2268.22
-508.845
-1985.5
-68.6747
-1076.58
-12477
-1875.99
-183.868
-2.08424
-7932.05
-5727.85
-2929.41
-2409.75
-1034.07
-18.688
-178.919
-7788.49
-1327.74
-595.606
-3159.19
-1952.88
-2000.7
-68.3751
-420.947
-5591.48
-16171.7
-1002.78
-9988.49
1.63869
-2457.2
1.65945
-3336.68
-5788.94
-7300.54
-409.632
-4.41417
-7893.35
-190.421
-3.81235
-3105.99
-12130
-31.526
-1934.02
-3975.89
-8003.67
-1183.9
-29.8014
-33996.5
-3268.01
-3414.04
-1873.51
-866.292
-107.628
-4139.85
-5586.34
-2365.13
-451.624
-14854.5
-5161.82
-103.756
-3358.09
1.15338
-8476.62
-836.218
-0.821635
-7727.6
-4199.46
-1790.46
-282.567
-3338.94
-6564.33
-5305.87
-24.2182
-3347.73
-273.938
-1599.36
-5495.24
-939.796
-2113.42
-5306.28
-5010.71
-17325.6
-4112.71
-99.6233
-6.84088
-7.03343
-7524.79
-629.477
1.23807
1.0805
-3077.05
-5552.45
-3199.74
-2.35755
-12333.7
-7515.34
-1518.25
-1.83704
-27925.1
-281.653
-606.833
-37.818
-3841.91
-5595.77
-5434.34
-35.9813
-4348.49
-7005.21
-4963.6
-15176.3
-5673.08
-5967.21
-1721.01
-2893.92
-144.084
-8016.38
-1220.26
-14.2223
-7001.82
-5156.36
-2632.49
-1.68975
-646.196
-5106.48
-139.534
-5580.65
0.881944
-3379.08
-6784.39
-1155.86
-381.463
-4039.13
-28.5965
-4295.79
-5309.1
-2442.35
-368.499
-4562.88
-15739.2
-8642.31
-39.3413
-6338.65
-6798.55
-39.5166
-18.651
-32649.4
-131.79
-6360.27
-19.1717
-1253.41
-8650.36
-2059.25
-1.30522
-4847.01
-1.55633
-10631
-2761.02
-813.77
-0.631988
-3391.52
-17042.4
-8402.44
-5669.57
-3519.94
-0.286917
-370.442
-3836.96
-45.195
-3691.12
-771.578
-1894.37
-4216.02
-7877.37
-43.6715
-21609.3
-6488.99
-12963
-53.0861
-28.8099
-8943.89
-4817.97
-181.56
-2954.31
-11002
-5.49837
-7083.99
-1447.61
-8791.26
-2655.75
-2063.56
-2671.87
-175.734
1.82331
-798.082
-10623.3
-3462.41
-2998.37
-26854.1
-8331.92
-462.212
-36.7815
-9887.61
-6068.96
-4625.54
-1324.12
-5139.37
-3850.31
-11611.8
-7602.82
-90.7413
-91.0041
-61.2075
-2356.66
-61.6827
-28.6193
-437.975
-1842.16
-8838.21
-29.0018
-167.604
-2.01548
-2280.22
-2649.17
-7345.26
-6636.44
-2.16665
-12196.7
-4909.57
-1382.15
-1.73147
-2140.41
-7539.93
-896.427
-11881.9
-1.30798
-2849.32
-5502.56
-1838.69
-61.3941
-4199.13
-433.121
-11190.2
-1075.17
-8738.29
-105.43
-39564.5
-58.4087
-812.723
-72.3049
-6089.12
-34.9321
-10125.5
-42615.1
-3703.87
-1850.46
-219.282
-3.78768
-4287.73
-8726.58
-0.0757547
-494.336
-204.278
-2638.74
-1364.45
-1342.35
-12208
-538.895
-809.287
-4599.54
-1908.39
-14829.9
-1102.93
-2975.23
-11728.5
-55.8652
-7089.28
-6329.49
-481.935
-13971.4
-140.49
-141.259
-2558.81
-105.446
-3092.9
-106.334
-10829.3
-63.6002
-64.5532
-22.3201
-12635.5
-1146.18
-23.2117
-425.744
-9577.68
-3626.86
2.81435
-199.056
-3194.2
-38502.6
-128.762
-5361.78
-851.088
2.56712
-10876.4
-12.0597
-7999.44
-9.51655
-1120.34
-2020.23
-1877.03
-757.881
-8786.06
-1575.23
-90.9305
-4122.58
-14166.3
-151.398
-47954.9
-3716.03
-6216.02
-408.641
-110.937
-64.2423
-78.3955
13.8271
-13463.7
-1986.53
-20.4443
-6557.95
-514.84
-316.112
-605.102
-12307
3.70207
-946.481
-232.024
-4415.36
-1153.14
-10718.3
-13.8672
-2305.8
-34.7619
-4437.33
-190.398
-58370.9
-1079.79
-65637.3
-8783.75
-555.909
-829.004
-60.7215
-2801.02
-2410.68
-154.619
-86.908
-155.677
-106.706
-1056.78
-108.198
-189.684
-54.1628
-366.029
-56.2221
-10.2441
-6658.49
-12.1324
-2647.92
3.28267
-13516.8
-1233.55
4.10995
-16195.8
-1228.91
2.55548
-50.2157
-39.3262
-190.089
-12594.5
-262.506
-537.095
-1528.12
-220.447
-29.6939
-14701.8
-4557.99
-299.116
-483.358
-11125.3
-151.519
-507.677
4.79684
-12659.9
-33.5379
0.0322524
-805.484
-119.799
-1324.64
-102.649
-9320.45
-56.8249
-262.575
-351.234
-438.992
-645.91
-10266.1
-2715.71
-300.824
-849.353
-1146.29
-230.345
-7290.34
-68263.2
-1494.49
-512.009
-660.851
-158.238
-1602.92
-221.934
-7687.53
-2431.36
-1463.13
4.3543
-798.076
-5193.19
-174.985
-2333.19
-376.169
-1315.97
-487.636
-5154.76
-291.703
-3221.79
-10889.7
-2855.96
-3237.09
8.56737
-1089.04
-224.076
-1727.58
-1446.49
-372.926
-9763.65
-172.42
-3664.97
-2938.92
-108.681
-27.3617
-2101.02
-121.122
-8552.28
-3039.97
-435.224
-17.0212
-242.328
-1641.2
-1360.37
-207.758
-70.1982
-3034.92
-7196.36
-3660.36
-1280.47
-106441
-7.32874
-648.571
-1953.19
-57.8314
-5684.27
-969.725
-564.501
-2863.89
-112185
-3630.75
15.2914
-545.819
-1752.3
-30.0951
-4066.96
-301.147
-1934.81
-3277.62
11.8071
-47.7882
30.9717
-2893.24
-2269.1
-2478.5
-3733.77
-43.1041
-90104.5
-2211.92
-2462.17
-2273.63
-2771.67
-7360.85
41.5107
-30.5485
-1641.71
19.8196
-8497.14
-1129.23
-6.52906
-3698.79
-6343.88
-1581.18
-2769.99
-7280.88
-3359.02
17.2606
-3217.82
-5392.36
-979.664
-246.065
-301.659
-6104.03
-81.9856
-4444.07
-3934.8
-907.347
-215.311
-2093.01
-4883.89
-2642.42
-3431.79
-217.084
-517.004
36.5496
-3165.8
-3569.61
-681.71
-2726.22
-112690
-4061.77
-2345.39
-430.033
-467.817
-3586.79
-2203.84
-2471.5
-222.845
-1267.23
-882.584
-205.193
-960.437
-2696.32
-1027.53
-391.093
-132.823
-131.551
-763.011
-2040.14
24.1194
-2130.25
-2891.89
-35.916
-9.38944
-1860.44
-204.1
-1246.6
-3387.89
-3.4863
-673.777
-2089.3
-1000.29
-2698.56
-114626
-1811.36
1.62925
-1944.42
-2182.26
-2732
-26.452
-1308.77
-3685.17
-1820.1
-2549.5
-173879
-1596.2
-76.5804
-167.322
-1239.94
-1726.58
-4692.75
-3667.4
-229.693
-1384.91
-1978.3
-362.908
-7292.76
-1127.89
-3853.18
-1624.95
-405.73
-379.926
-584.453
-284.539
-1499.73
-1077.78
-167118
-608.055
-2854.66
-211.323
-143550
-2077.34
-778.402
-140.029
-1188.53
-750.487
-2201.89
-183431
-896.649
-76.0529
-804.47
-1562.28
-25.291
-242540
-986.287
-940.904
7.44535
19.5567
11.8263
-222306
-1991.35
-1996.55
-1873.93
-1716.21
-9.41991
-1604.31
-178000
-1446.01
-1334.62
-1175.32
-47.2957
-1070.49
-917.719
-204007
-822.794
-85.8528
-684.469
-603.013
-486.568
-166.401
-420.42
-330.947
-282.213
-222.302
-265691
-174.814
-144
-115.723
-70.0409
-25.9791
0.0933217
2.18048
-269558
-52.1093
-329.586
-253.201
-244939
-182.838
-120.392
-68.0981
-28.2254
-2.34126
8.99784
-1.51753
-355114
31.1855
-40.3958
-325.792
-1016.98
-321961
-467.088
-420.377
-377.049
-341.497
-303.193
-271.178
-237.552
-208.781
-179.867
-153.964
-129.581
-106.392
-86.1823
-65.7794
-49.084
-31.1213
-17.3159
-6.30774
35.0134
32.3796
-44.8225
-193.97
-421.596
-710.051
-1186.89
-1773.44
VECTORS Displacement float
0 0 0
0 0.00345879 0
0.00514455 0 0
0 0.00681145 0
0.0101473 0 0
0 0.0100405 0
0.0148957 0 0
0 0.0132333 0
0.0160786 0.0037871 0
0.0194507 0 0
0 0.0164892 0
0.0150226 0.00887453 0
0 0.0201569 0
0.0142595 0.0138831 0
0.0229853 0.0033733 0
0.0237801 0 0
0.0135641 0.0194678 0
0.0278322 0 0
0.0292232 0.00289617 0
0.0294708 0.00587414 0
0.0315869 0 0
0.0293544 0.00748959 0
0.0289808 0.00925256 0
0.0316673 0.00546338 0
0.0284539 0.011077 0
0.0279169 0.0129077 0
0.0273731 0.0148243 0
0.0349277 0 0
0.0336602 0.00502768 0
0.0346267 0.00227501 0
0.0267445 0.0171572 0
0.0355278 0.00451353 0
0.0346808 0.00760488 0
0.0340945 0.0098767 0
0.0378216 0 0
0.0372269 0.00394101 0
0.033386 0.0122507 0
0.0375457 0.00603594 0
0.0321913 0.0154031 0
0.0388921 0.00143632 0
0.038749 0.00329569 0
0.0400902 0 0
0.0400693 0.0025652 0
0.0396819 0.00437181 0
0.0388246 0.00695037 0
0.0387828 0.0074063 0
0.0387896 0.00788117 0
0.038789 0.00836617 0
0.0395872 0.00602937 0
0.0387686 0.0089153 0
0.0411587 0.00175193 0
0.0388021 0.00953504 0
0.0394071 0.0071199 0
0.039112 0.00841459 0
0.0386846 0.010658 0
0.040615 0.0115326 0
0.0412877 0.0115697 0
0.038992 0.00986912 0
0.0393104 0.00859762 0
0.0394023 0.00795538 0
0.041295 0.0110874 0
0.0407944 0.0104053 0
0.039257 0.00923286 0
0.0396831 0.00713369 0
0.0411671 0.0106411 0
0.0400598 0.00954297 0
0.0399483 0.00633751 0
0.0405236 0.00959953 0
0.0402441 0.00507923 0
0.0395763 0.00872521 0
0.0410315 0.00984521 0
0.0397196 0.00746974 0
0.0410772 0.0101144 0
0.0401745 0.00557798 0
0.0407912 0.00945202 0
0.0403002 0.00886282 0
0.0408956 0.00925464 0
0.0398295 0.00774865 0
0.0410061 0.00965255 0
0.0398431 0.00828676 0
0.0416549 0 0
0.0400793 0.00831718 0
0.0409239 0.00894296 0
0.0400147 0.0069833 0
0.0409322 0.00907778 0
0.0402917 0.00831895 0
0.0407642 0.00865415 0
0.0409363 0.00908449 0
0.0412308 0.0023757 0
0.0405164 0.00825829 0
0.040132 0.0078075 0
0.0409066 0.00865567 0
0.0404536 0.00551195 0
0.0415927 0.000299725 0
0.0406826 0.00816322 0
0.0403735 0.00774905 0
0.0408687 0.00861641 0
0.0408894 0.00818657 0
0.0404674 0.00581989 0
0.0403383 0.00639753 0
0.040824 0.00797385 0
0.0408839 0.00828252 0
0.0403747 0.00731917 0
0.0408488 0.00405286 0
0.0403822 0.00674913 0
0.0408673 0.00826192 0
0.0404526 0.00727151 0
0.0406747 0.00758089 0
0.0419873 0.000830344 0
0.0408805 0.00776093 0
0.0405271 0.00721899 0
0.0408681 0.00794117 0
0.0406397 0.00713315 0
0.0408283 0.00809735 0
0.0406391 0.00578354 0
0.0407374 0.00703489 0
0.0406337 0.00668634 0
0.0408901 0.00463386 0
0.0409024 0.00744549 0
0.0408924 0.00721589 0
0.0408845 0.00753644 0
0.0407367 0.00656793 0
0.0408454 0.0068634 0
0.0408395 0.0074952 0
0.0407474 0.00762949 0
0.0409058 0.00713775 0
0.0409221 0.00667529 0
0.0408697 0.00635257 0
0.0408426 0.00601073 0
0.0412086 0.00353522 0
0.0407547 0.00734171 0
0.0409336 0.00500653 0
0.0408785 0.00594335 0
0.040923 0.00536616 0
0.0413482 0.00294756 0
0.0409116 0.00587307 0
0.0409357 0.0066084 0
0.0407644 0.00705145 0
0.0409625 0.00637924 0
0.0411301 0.00422834 0
0.0408714 0.00670207 0
0.0409558 0.00575909 0
0.0412498 0.00365525 0
0.0409843 0.0059734 0
0.0409923 0.00563934 0
0.0405828 0.00701686 0
0.0407785 0.00665342 0
0.0409625 0.00607352 0
0.0410444 0.00510821 0
0.0410308 0.0054492 0
0.0411773 0.00418322 0
0.0407901 0.00625108 0
0.0410801 0.00495872 0
0.0410505 0.00524967 0
0.0405878 0.00642588 0
0.0409106 0.00562299 0
0.040997 0.00535884 0
0.0411151 0.00471041 0
0.0408037 0.00570513 0
0.0403182 0.00637985 0
0.0410522 0.00494409 0
0.0415229 0.00261529 0
0.0425088 -0.000163006 0
0.0411935 0.00417297 0
0.0417352 0.00175838 0
0.0411998 0.0040939 0
0.0403203 0.00607364 0
0.0412042 0.00401331 0
0.0405954 0.00559988 0
0.0413803 0.00316305 0
0.041323 0.00345042 0
0.0408106 0.00514917 0
0.0411239 0.00430598 0
0.0410241 0.00462373 0
0.0403214 0.00576327 0
0.0412079 0.00388531 0
0.041207 0.00375395 0
0.042077 9.50829e-06 0
0.0415632 0.00226644 0
0.0403209 0.00533763 0
0.041196 0.00354977 0
0.0408138 0.00440804 0
0.0409386 0.00414905 0
0.0398374 0.00548397 0
0.0413125 0.00298204 0
0.0403177 0.00490588 0
0.0417893 0.00115743 0
0.0411748 0.00333876 0
0.0410486 0.00366444 0
0.0417099 0.00147808 0
0.040592 0.00446334 0
0.0415165 0.00210787 0
0.0413021 0.00281647 0
0.042336 0 0
0.0419743 0.000507987 0
0.039837 0.00482678 0
0.0411248 0.00301914 0
0.0408073 0.00365143 0
0.0403088 0.00432533 0
0.0412719 0.00254917 0
0.0410534 0.00268715 0
0.0402942 0.00373721 0
0.0413705 0.0017684 0
0.0411972 0.00212539 0
0.0392429 0.00451684 0
0.0413555 0.00168385 0
0.0398243 0.00392773 0
0.0413393 0.00159824 0
0.0407851 0.00267546 0
0.0405551 0.00293655 0
0.0417979 0.000305766 0
0.0415858 0.000844974 0
0.039242 0.00416972 0
0.0413129 0.00146329 0
0.0409181 0.00219827 0
0.0414951 0.00098078 0
0.0402667 0.00296561 0
0.0412833 0.00132589 0
0.0392385 0.00382157 0
0.0427045 -0.00126029 0
0.0412322 0.00111433 0
0.0410261 0.00146624 0
0.0417084 -4.50996e-05 0
0.0420681 -0.00078792 0
0.0392302 0.00335477 0
0.0407439 0.00168898 0
0.0397849 0.00272218 0
0.0411736 0.000897637 0
0.0402291 0.00218711 0
0.0413575 0.000286923 0
0.0392176 0.0028867 0
0.0410744 0.000572183 0
0.0413113 0.000115843 0
0.041575 -0.000435024 0
0.0417975 -0.000945055 0
0.038315 0.00318597 0
0.0391948 0.00226996 0
0.0404461 0.000962405 0
0.0412285 -0.000157152 0
0.0409595 0.000236901 0
0.0418861 -0.00141775 0
0.0401657 0.00119728 0
0.0406639 0.000464735 0
0.0383118 0.00244935 0
0.039165 0.00165271 0
0.0396947 0.00114918 0
0.0410829 -0.000584239 0
0.0407703 -0.000253176 0
0.0420176 -0.00211095 0
0.0412632 -0.00119806 0
0.0400843 0.000206033 0
0.0422176 -0.00115445 0
0.0412319 -0.00128305 0
0.0391164 0.000857882 0
0.0411996 -0.00136881 0
0.0382891 0.00147835 0
0.041703 -0.00220433 0
0.0414643 -0.00191727 0
0.0405505 -0.000760038 0
0.0411494 -0.00150352 0
0.0421241 -0.00266592 0
0.0408244 -0.00123933 0
0.0410969 -0.00164006 0
0.0372696 0.00175804 0
0.0413277 -0.0020116 0
0.0410128 -0.00184927 0
0.0390564 6.53622e-05 0
0.0372677 0.00137233 0
0.0415209 -0.00265631 0
0.0399573 -0.00101216 0
0.0409232 -0.00206242 0
0.0425389 -0.00238534 0
0.0372624 0.000988515 0
0.0382302 0.000219552 0
0.0395164 -0.000833966 0
0.0402025 -0.0014784 0
0.0407822 -0.00238077 0
0.0372509 0.000489048 0
0.0418373 -0.00344993 0
0.0389645 -0.000927485 0
0.0403669 -0.00222198 0
0.0410476 -0.00292958 0
0.041518 -0.00352615 0
0.0406295 -0.00270689 0
0.037234 -7.40038e-06 0
0.0409745 -0.00309642 0
0.0412607 -0.00339276 0
0.0398016 -0.00222182 0
0.0408523 -0.00336114 0
0.0420404 0 0
0.0372052 -0.00064564 0
0.0388551 -0.00191222 0
0.0403931 -0.00318096 0
0.03811 -0.00137456 0
0.0415469 -0.00406102 0
0.0358004 -0.000114696 0
0.0406525 -0.00377228 0
0.0371682 -0.00127871 0
0.0401333 -0.00366873 0
0.039197 -0.00323839 0
0.035796 -0.000912766 0
0.0395744 -0.00365523 0
0.0386962 -0.00310829 0
0.0415508 -0.00478025 0
0.0412451 -0.0048354 0
0.040731 -0.00463476 0
0.0371102 -0.00207749 0
0.0403263 -0.00439768 0
0.0406886 -0.00471571 0
0.0406455 -0.00479726 0
0.040923 -0.00504279 0
0.0397406 -0.00435681 0
0.0405789 -0.00492512 0
0.0405106 -0.00505442 0
0.0378936 -0.00333454 0
0.0357698 -0.00192551 0
0.0370402 -0.00286723 0
0.0404039 -0.00525199 0
0.0406985 -0.00542095 0
0.0409532 -0.00549773 0
0.038512 -0.00428678 0
0.0402932 -0.00545268 0
0.0420242 -0.00353935 0
0.039795 -0.00532798 0
0.0393058 -0.00506591 0
0.0401236 -0.00575145 0
0.0369368 -0.00384041 0
0.0342276 -0.00209353 0
0.0357053 -0.00319636 0
0.0399452 -0.0060565 0
0.0408762 -0.00619048 0
0.0342252 -0.00250317 0
0.0411615 -0.00609902 0
0.0402513 -0.00653198 0
0.0342192 -0.00291016 0
0.0413351 -0.00543169 0
0.038257 -0.00567091 0
0.0368166 -0.00479833 0
0.039677 -0.00649847 0
0.0404829 -0.0066566 0
0.0386702 -0.00603199 0
0.0401625 -0.00668714 0
0.0342067 -0.00342003 0
0.0408388 -0.00667608 0
0.0375358 -0.00566249 0
0.0400174 -0.00693258 0
0.0389377 -0.00667529 0
0.0355789 -0.00476187 0
0.0393908 -0.00695178 0
0.0341887 -0.00392564 0
0.0397866 -0.00731232 0
0.0366473 -0.00594653 0
0.0341591 -0.00455627 0
0.0379677 -0.00702498 0
0.0389699 -0.00758941 0
0.0404269 -0.00751433 0
0.0394227 -0.00788729 0
0.0406971 -0.00738373 0
0.0341216 -0.00518 0
0.0364555 -0.00707063 0
0.0385156 -0.0082449 0
0.0353592 -0.00664266 0
0.0396614 -0.00836277 0
0.0321926 -0.00454875 0
0.0396139 -0.00843688 0
0.0340645 -0.00594834 0
0.0398838 -0.00839112 0
0.0395658 -0.00851147 0
0.0394918 -0.00862835 0
0.0411763 -0.00466343 0
0.0388532 -0.00873849 0
0.0399603 -0.00847116 0
0.0394162 -0.00874638 0
0.0375856 -0.00855989 0
0.0321882 -0.005373 0
0.0369845 -0.00832384 0
0.0392997 -0.00892643 0
0.0339961 -0.00670569 0
0.0391798 -0.00910902 0
0.0395167 -0.00906018 0
0.0361973 -0.0083773 0
0.0378655 -0.00913612 0
0.0389986 -0.00938028 0
0.0398753 -0.00886267 0
0.0407188 0 0
0.0321632 -0.00637567 0
0.0338975 -0.00762166 0
0.0401472 -0.00862108 0
0.0388104 -0.00965668 0
0.0379702 -0.00996613 0
0.035008 -0.00883471 0
0.0385315 -0.0100562 0
0.0398065 -0.00918476 0
0.0371602 -0.0100506 0
0.0359103 -0.00964881 0
0.0337836 -0.00852072 0
0.0321038 -0.00759183 0
0.0382381 -0.0104651 0
0.0403827 -0.00274643 0
0.0391824 -0.0100512 0
0.0388899 -0.0102984 0
0.0387967 -0.0104393 0
0.038646 -0.0106616 0
0.0301023 -0.00709177 0
0.0336265 -0.00958288 0
0.0378129 -0.0110391 0
0.0392501 -0.0101595 0
0.0300998 -0.00750317 0
0.0384089 -0.0110043 0
0.0319904 -0.00905112 0
0.0361868 -0.0112449 0
0.0300936 -0.00791293 0
0.0395137 -0.00981172 0
0.0355401 -0.0110787 0
0.0397845 -0.00796579 0
0.0373604 -0.0116281 0
0.0380408 -0.0115211 0
0.0366236 -0.0116784 0
0.0300818 -0.00840147 0
0.0334495 -0.01062 0
0.0344842 -0.0113023 0
0.0400577 -0.00571442 0
0.030065 -0.00888742 0
0.0367209 -0.0124277 0
0.037475 -0.0122825 0
0.0300388 -0.00946997 0
0.0317974 -0.0107702 0
0.0385253 -0.0114343 0
0.0351347 -0.0124612 0
0.038318 -0.0117529 0
0.0332153 -0.0118117 0
0.0380124 -0.0121192 0
0.0300057 -0.0100483 0
0.0379656 -0.0121867 0
0.0379183 -0.0122546 0
0.0378447 -0.0123608 0
0.0385228 -0.0114499 0
0.0377701 -0.0124679 0
0.0376553 -0.012631 0
0.0360351 -0.013247 0
0.0388001 -0.0109339 0
0.0299573 -0.0107393 0
0.0375378 -0.012796 0
0.0366146 -0.0133754 0
0.0373611 -0.0130403 0
0.0384734 -0.0115159 0
0.0329565 -0.0129679 0
0.0377625 -0.0126614 0
0.0298993 -0.0114233 0
0.0371786 -0.0132885 0
0.0275957 -0.0100557 0
0.0314939 -0.0127439 0
0.0346331 -0.0139617 0
0.0369098 -0.0136459 0
0.0337487 -0.0139755 0
0.029818 -0.0122318 0
0.035097 -0.0143159 0
0.0275917 -0.0108582 0
0.0366289 -0.0140103 0
0.0326279 -0.0142554 0
0.0297236 -0.0130287 0
0.0377258 -0.0126674 0
0.0362244 -0.0145198 0
0.0373606 -0.0133354 0
0.0353257 -0.014893 0
0.0275706 -0.0117857 0
0.0380066 -0.0119932 0
0.0369675 -0.0139339 0
0.0368779 -0.0140649 0
0.03868 -0.00664026 0
0.035797 -0.0150406 0
0.0340907 -0.0154027 0
0.0367349 -0.0142704 0
0.029596 -0.013954 0
0.0365111 -0.0145851 0
0.0275227 -0.0128667 0
0.0384457 0 0
0.0310475 -0.0149375 0
0.0322709 -0.0154954 0
0.0351966 -0.0157448 0
0.0361658 -0.0150555 0
0.0294514 -0.0148601 0
0.0274347 -0.0141274 0
0.0356394 -0.0157408 0
0.0376027 -0.0101245 0
0.0345567 -0.0164636 0
0.0366672 -0.0142054 0
0.0327716 -0.0167531 0
0.0368315 -0.0138413 0
0.0251284 -0.0130461 0
0.037142 -0.0129738 0
0.0334461 -0.0169087 0
0.0292633 -0.0158872 0
0.0318359 -0.0168293 0
0.0251254 -0.0134333 0
0.0368559 -0.0136043 0
0.036261 -0.0148681 0
0.0251196 -0.0138215 0
0.0348462 -0.0167118 0
0.0272881 -0.0155835 0
0.0358299 -0.0155866 0
0.0336856 -0.0173977 0
0.0251088 -0.0142551 0
0.0357874 -0.0156513 0
0.0357444 -0.0157163 0
0.0304312 -0.0172829 0
0.0356767 -0.0158176 0
0.0290551 -0.0168842 0
0.0356079 -0.0159193 0
0.0250942 -0.0146898 0
0.0355022 -0.0160735 0
0.035394 -0.0162286 0
0.0352321 -0.016457 0
0.0250731 -0.0151835 0
0.0313705 -0.0181038 0
0.0350651 -0.0166873 0