# vtk DataFile Version 3.0
File generated from DClib
ASCII

DATASET UNSTRUCTURED_GRID
POINTS 1909 float
50 0 0 
48.75 0 0 
50 1.66667 0 
47.5 0 0 
50 3.33333 0 
46.25 0 0 
50 5 0 
45 0 0 
43.75 0 0 
50 6.66667 0 
43 2 0 
42.5 0 0 
50 8.33333 0 
43 4.66667 0 
41.25 0 0 
41.075 2 0 
50 10 0 
40 0 0 
43 7.33333 0 
39.15 2 0 
38.75 0 0 
43 10 0 
37.5 0 0 
37.225 2 0 
36.25 0 0 
36 4 0 
35.3 2 0 
36 5 0 
35 0 0 
35.325 4 0 
36 6 0 
36 7 0 
34.65 4 0 
36 8 0 
33.75 0 0 
33.975 4 0 
36 9 0 
33.375 2 0 
33.3 4 0 
36 10 0 
32.5 0 0 
32.625 4 0 
33 6 0 
31.95 4 0 
33 7.45455 0 
31.45 2 0 
31.25 0 0 
31.95 6 0 
33 8.79545 0 
31.275 4 0 
33 10 0 
30.6 4 0 
30 0 0 
30.9 6 0 
29.925 4 0 
29.525 2 0 
29.85 6 0 
29.25 4 0 
28.75 0 0 
30 8 0 
30 8.45455 0 
28.575 4 0 
29.625 8 0 
30 8.90909 0 
28.8 6 0 
30 9.25 0 
29.782 8.90909 0 
30 9.59091 0 
29.9487 9.59091 0 
29.25 8 0 
29.7462 9.25 0 
30 9.79545 0 
29.897 9.59091 0 
29.564 8.90909 0 
29.9547 9.79545 0 
29.3462 8.45455 0 
29.84 9.59091 0 
30 10 0 
29.8975 9.79545 0 
29.9882 10 0 
29.9902 10.0098 0 
29.7827 9.59091 0 
29.9765 10 0 
29.9804 10.0196 0 
29.9667 10.0098 0 
29.9591 10 0 
29.9686 10.0196 0 
29.9659 10.0341 0 
29.9569 10.0196 0 
29.9418 10 0 
29.9395 10.0196 0 
29.9515 10.0485 0 
29.932 10.0098 0 
29.9424 10.0341 0 
29.8241 9.79545 0 
29.7181 9.59091 0 
29.9166 10 0 
29.9397 10.0485 0 
29.9222 10.0196 0 
29.9279 10.0485 0 
29.9305 10.0695 0 
29.8914 10 0 
29.9077 10.0341 0 
27.9 4 0 
29.897 10.0196 0 
29.9106 10.0485 0 
29.8817 10.0098 0 
29.907 10.0695 0 
29.8933 10.0485 0 
29.9095 10.0905 0 
29.8719 10.0196 0 
27.6 2 0 
29.8556 10 0 
29.8978 10.0905 0 
29.6531 9.59091 0 
29.3437 8.90909 0 
27.5 0 0 
29.8681 10.0485 0 
29.886 10.0905 0 
29.8574 10.0341 0 
29.4839 9.25 0 
29.8723 10.0695 0 
29.7289 9.79545 0 
29.836 10.0196 0 
29.8687 10.0905 0 
29.8197 10 0 
29.8797 10.1203 0 
29.843 10.0485 0 
29.8513 10.0905 0 
29.81 10.0098 0 
29.8561 10.1203 0 
29.8002 10.0196 0 
29.8221 10.0695 0 
29.8072 10.0485 0 
29.8262 10.0905 0 
29.5782 9.59091 0 
29.8498 10.1502 0 
29.7695 10 0 
29.7858 10.0341 0 
29.838 10.1502 0 
29.8215 10.1203 0 
29.8011 10.0905 0 
29.8262 10.1502 0 
29.7714 10.0485 0 
28.875 8 0 
29.75 10.0196 0 
29.8089 10.1502 0 
29.7654 10.0905 0 
29.7193 10 0 
29.7916 10.1502 0 
29.7505 10.0695 0 
29.8079 10.1921 0 
29.7713 10.1203 0 
29.7096 10.0098 0 
29.6047 9.79545 0 
29.503 9.59091 0 
29.7213 10.0485 0 
29.7665 10.1502 0 
29.6999 10.0196 0 
29.7844 10.1921 0 
29.7296 10.0905 0 
29.6856 10.0341 0 
29.7414 10.1502 0 
29.7497 10.1921 0 
29.6503 10 0 
29.7661 10.2339 0 
29.6712 10.0485 0 
29.6999 10.1203 0 
29.7543 10.2339 0 
29.6796 10.0905 0 
29.7057 10.1502 0 
29.7425 10.2339 0 
29.1235 8.90909 0 
29.6309 10.0196 0 
29.6504 10.0695 0 
29.4146 9.59091 0 
29.7252 10.2339 0 
29.6996 10.1921 0 
29.6701 10.1502 0 
29.7079 10.2339 0 
29.6296 10.0905 0 
29.5813 10 0 
29.6023 10.0485 0 
29.5716 10.0098 0 
29.6828 10.2339 0 
29.7086 10.2914 0 
29.2101 9.25 0 
29.562 10.0196 0 
29.6201 10.1502 0 
29.6578 10.2339 0 
29.4428 9.79545 0 
29.5999 10.1203 0 
29.6849 10.2914 0 
29.6283 10.1921 0 
29.5477 10.0341 0 
29.3259 9.59091 0 
29.5608 10.0905 0 
29.5335 10.0485 0 
29.6221 10.2339 0 
29.6503 10.2914 0 
29.5702 10.1502 0 
29.4881 10 0 
29.5128 10.0695 0 
29.6511 10.3489 0 
29.5866 10.2339 0 
29.6392 10.3489 0 
29.4689 10.0196 0 
29.6002 10.2914 0 
29.6273 10.3489 0 
29.4921 10.0905 0 
29.61 10.3489 0 
29.5286 10.1921 0 
29.5016 10.1502 0 
29.5368 10.2339 0 
29.5926 10.3489 0 
29.4405 10.0485 0 
29.2199 9.59091 0 
29.4626 10.1203 0 
29.3949 10 0 
28.9 8.90909 0 
29.5676 10.3489 0 
29.5291 10.2914 0 
29.3853 10.0098 0 
28.6923 8.45455 0 
29.487 10.2339 0 
29.5426 10.3489 0 
29.3758 10.0196 0 
29.5734 10.4266 0 
29.4331 10.1502 0 
29.3993 10.0905 0 
28.5 8 0 
29.3617 10.0341 0 
29.5496 10.4266 0 
29.5071 10.3489 0 
29.2327 9.79545 0 
29.3475 10.0485 0 
29.1136 9.59091 0 
29.4187 10.2339 0 
29.5148 10.4266 0 
29.4716 10.3489 0 
29.3918 10.1921 0 
29.3271 10.0695 0 
29.4298 10.2914 0 
29.2714 10 0 
29.3406 10.1502 0 
28.9208 9.25 0 
29.3066 10.0905 0 
29.4648 10.4266 0 
29.422 10.3489 0 
29.4958 10.5042 0 
29.2524 10.0196 0 
27.75 6 0 
29.3504 10.2339 0 
29.4837 10.5042 0 
29.4718 10.5042 0 
29.2774 10.1203 0 
29.4543 10.5042 0 
29.3724 10.3489 0 
29.2244 10.0485 0 
29.4369 10.5042 0 
29.3938 10.4266 0 
28.9853 9.59091 0 
29.2481 10.1502 0 
28.6766 8.90909 0 
29.4119 10.5042 0 
29.2934 10.2914 0 
27.225 4 0 
29.148 10 0 
29.2582 10.2339 0 
29.1837 10.0905 0 
29.3869 10.5042 0 
29.1385 10.0098 0 
29.3044 10.3489 0 
29.1291 10.0196 0 
29.2072 10.1921 0 
29.3514 10.5042 0 
29.1152 10.0341 0 
29.3929 10.6071 0 
29.2949 10.4266 0 
29.1013 10.0485 0 
29.3686 10.6071 0 
29.316 10.5042 0 
29.2364 10.3489 0 
28.9623 9.79545 0 
29.1257 10.1502 0 
29.1662 10.2339 0 
29.0811 10.0695 0 
28.8566 9.59091 0 
29.3336 10.6071 0 
29.2666 10.5042 0 
29.0609 10.0905 0 
28.9875 10 0 
29.2835 10.6071 0 
29.1448 10.3489 0 
29.0321 10.1203 0 
29.2173 10.5042 0 
29.1098 10.2914 0 
28.125 8 0 
28.9688 10.0196 0 
29.1594 10.4266 0 
28.611 9.25 0 
29.29 10.71 0 
28.4486 8.90909 0 
29.0443 10.2339 0 
29.0033 10.1502 0 
29.2777 10.71 0 
28.9413 10.0485 0 
29.2128 10.6071 0 
29.2655 10.71 0 
29.1497 10.5042 0 
29.2478 10.71 0 
28.7003 9.59091 0 
29.0533 10.3489 0 
29.2303 10.71 0 
28.9629 10.1921 0 
28.9013 10.0905 0 
29.2051 10.71 0 
29.0822 10.5042 0 
29.1801 10.71 0 
28.827 10 0 
29.1144 10.6071 0 
28.8177 10.0098 0 
28.9225 10.2339 0 
28.8085 10.0196 0 
29.1447 10.71 0 
28.7949 10.0341 0 
28.8443 10.1502 0 
28.977 10.4266 0 
28.9322 10.3489 0 
29.1094 10.71 0 
28.7813 10.0485 0 
28.9912 10.5042 0 
29.1562 10.8438 0 
28.5436 9.59091 0 
28.7615 10.0695 0 
28.8669 10.2914 0 
29.1313 10.8438 0 
28.6184 9.79545 0 
29.0602 10.71 0 
28.2207 8.90909 0 
28.7418 10.0905 0 
28.0378 8.45455 0 
28.9798 10.6071 0 
29.0958 10.8438 0 
29.0112 10.71 0 
28.9005 10.5042 0 
28.7136 10.1203 0 
28.7644 10.2339 0 
28.8113 10.3489 0 
29.0454 10.8438 0 
28.6223 10 0 
28.6854 10.1502 0 
28.2746 9.25 0 
28.9441 10.71 0 
28.6042 10.0196 0 
27.75 8 0 
28.9747 10.8438 0 
28.6459 10.1921 0 
28.5773 10.0485 0 
29.0225 10.9775 0 
28.3532 9.59091 0 
28.7804 10.5042 0 
28.736 10.4266 0 
28.8772 10.71 0 
29.0097 10.9775 0 
28.9971 10.9775 0 
28.799 10.6071 0 
28.9791 10.9775 0 
28.5384 10.0905 0 
28.6064 10.2339 0 
28.6543 10.3489 0 
28.9611 10.9775 0 
28.8769 10.8438 0 
27.9867 8.90909 0 
26.25 0 0 
28.9358 10.9775 0 
28.7871 10.71 0 
28.9106 10.9775 0 
28.6607 10.5042 0 
28.4177 10 0 
26.55 4 0 
28.552 10.2914 0 
28.483 10.1502 0 
28.4087 10.0098 0 
28.8751 10.9775 0 
28.3998 10.0196 0 
28.3866 10.0341 0 
28.8399 10.9775 0 
28.6974 10.71 0 
28.3735 10.0485 0 
28.1625 9.59091 0 
28.7436 10.8438 0 
28.4976 10.3489 0 
28.3543 10.0695 0 
28.791 10.9775 0 
28.4052 10.2339 0 
28.3352 10.0905 0 
28.8519 11.1481 0 
28.1869 9.79545 0 
28.5607 10.6071 0 
28.5053 10.5042 0 
28.7423 10.9775 0 
28.8258 11.1481 0 
28.308 10.1203 0 
28.5787 10.71 0 
27.904 9.25 0 
28.7893 11.1481 0 
28.424 10.4266 0 
27.7528 8.90909 0 
28.2807 10.1502 0 
28.6758 10.9775 0 
27.375 8 0 
28.7383 11.1481 0 
28.1619 10 0 
28.5649 10.8438 0 
28.2425 10.1921 0 
28.6096 10.9775 0 
28.1444 10.0196 0 
28.298 10.3489 0 
28.4605 10.71 0 
26.7 6 0 
27.9315 9.59091 0 
28.3503 10.5042 0 
28.6676 11.1481 0 
28.1187 10.0485 0 
28.2042 10.2339 0 
28.5207 10.9775 0 
28.0813 10.0905 0 
28.6814 11.3186 0 
27.3818 8.45455 0 
28.6679 11.3186 0 
28.1516 10.2914 0 
28.5703 11.1481 0 
28.6544 11.3186 0 
28.6358 11.3186 0 
27.5109 8.90909 0 
28.3072 10.71 0 
28.6173 11.3186 0 
28.2524 10.6071 0 
28.4322 10.9775 0 
28.028 10.1502 0 
28.5915 11.3186 0 
28.0989 10.3489 0 
28.33 10.8438 0 
28.5658 11.3186 0 
28.153 10.5042 0 
27.9061 10 0 
27.8975 10.0098 0 
28.5303 11.3186 0 
28.4384 11.1481 0 
27.7002 9.59091 0 
27.889 10.0196 0 
27.8765 10.0341 0 
28.4949 11.3186 0 
28.3154 10.9775 0 
27.9532 10.2339 0 
27.8639 10.0485 0 
28.0276 10.4266 0 
28.1544 10.71 0 
27.8457 10.0695 0 
27.4909 9.25 0 
28.4463 11.3186 0 
27 8 0 
27.8275 10.0905 0 
28.3979 11.3186 0 
27.8015 10.1203 0 
27.6542 9.79545 0 
25.675 2 0 
28.1991 10.9775 0 
27.2691 8.90909 0 
27.9563 10.5042 0 
28.4682 11.5318 0 
28.2625 11.1481 0 
27.7755 10.1502 0 
28.3322 11.3186 0 
27.8502 10.3489 0 
28.4401 11.5318 0 
25.875 4 0 
27.7391 10.1921 0 
28.4019 11.5318 0 
28.0268 10.8438 0 
28.2668 11.3186 0 
27.9602 10.71 0 
28.3498 11.5318 0 
27.4223 9.59091 0 
27.7026 10.2339 0 
27.5927 10 0 
28.0486 10.9775 0 
27.8616 10.6071 0 
27.5762 10.0196 0 
28.1794 11.3186 0 
28.2786 11.5318 0 
27.5519 10.0485 0 
27.6524 10.2914 0 
28.0319 11.1481 0 
27.7108 10.5042 0 
27.5167 10.0905 0 
27.0169 8.90909 0 
28.0924 11.3186 0 
27.6021 10.3489 0 
27.8988 10.9775 0 
28.1818 11.5318 0 
27.7667 10.71 0 
26.625 8 0 
28.255 11.745 0 
27.4664 10.1502 0 
28.2402 11.745 0 
28.2256 11.745 0 
28.2059 11.745 0 
27.978 11.3186 0 
26.7234 8.45455 0 
27.0259 9.25 0 
27.5342 10.4266 0 
28.1863 11.745 0 
27.1442 9.59091 0 
28.0516 11.5318 0 
28.1598 11.745 0 
27.3959 10.2339 0 
28.1334 11.745 0 
27.2793 10 0 
27.2714 10.0098 0 
27.2635 10.0196 0 
27.7086 10.9775 0 
27.6431 10.8438 0 
28.0975 11.745 0 
27.8643 11.3186 0 
27.4661 10.5042 0 
27.2518 10.0341 0 
27.2401 10.0485 0 
28.0617 11.745 0 
26.7648 8.90909 0 
27.5255 10.71 0 
27.7353 11.1481 0 
27.2231 10.0695 0 
28.0133 11.745 0 
27.2061 10.0905 0 
27.8791 11.5318 0 
27.2986 10.3489 0 
27.1818 10.1203 0 
27.9651 11.745 0 
27.3758 10.6071 0 
27.0077 9.79545 0 
27.7174 11.3186 0 
27.1576 10.1502 0 
25 0 0 
27.5193 10.9775 0 
27.9003 11.745 0 
27.1236 10.1921 0 
26.25 8 0 
27.9939 12.0061 0 
25.65 6 0 
27.8359 11.745 0 
26.8136 9.59091 0 
27.0896 10.2339 0 
27.9626 12.0061 0 
27.2853 10.71 0 
25.2 4 0 
27.5713 11.3186 0 
27.9218 12.0061 0 
26.4998 8.90909 0 
27.167 10.5042 0 
27.6541 11.5318 0 
27.0427 10.2914 0 
27.7503 11.745 0 
26.9033 10 0 
27.8677 12.0061 0 
26.8882 10.0196 0 
26.8659 10.0485 0 
26.9958 10.3489 0 
27.2836 10.9775 0 
27.6652 11.745 0 
27.3609 11.1481 0 
27.7955 12.0061 0 
26.499 9.25 0 
[...]
POINT_DATA 1909
SCALARS phi float 1
LOOKUP_TABLE default
VECTORS Displacement float
0 0 0
0 0 0
0 -0.000466478 0
0 0 0
0 -0.000183739 0
0 0 0
0 0.000760245 0
0 0 0
0 0 0
0 0.00228927 0
0.00432848 -0.000211033 0
0 0 0
0 0.00436561 0
0.00830713 0.00146932 0
0 0 0
0.0058001 -0.000212202 0
0 0.00688755 0
0 0 0
0.0110583 0.00490388 0
0.00735321 -0.000242229 0
0 0 0
0.0126935 0.00943972 0
0 0 0
0.00894733 -0.000317966 0
0 0 0
0.0168582 0.00100127 0
0.0105002 -0.000431696 0
0.0201608 0.00226199 0
0 0 0
0.0180463 0.000912594 0
0.022589 0.00389763 0
0.0243209 0.00578658 0
0.0191596 0.000821748 0
0.0255998 0.00778867 0
0 0 0
0.0202506 0.000684943 0
0.0263814 0.00985419 0
0.0119408 -0.000574967 0
0.0212848 0.000539809 0
0.0267928 0.0118892 0
0 0 0
0.0222646 0.000371057 0
0.0290372 0.0031947 0
0.0231873 0.000192298 0
0.0323176 0.00612769 0
0.0132139 -0.000744471 0
0 0 0
0.0312381 0.002356 0
0.0341186 0.00948772 0
0.0240491 -3.38487e-06 0
0.0343243 0.0129343 0
0.0248472 -0.000209909 0
0 0 0
0.0329918 0.00161778 0
0.0255826 -0.000431473 0
0.0142714 -0.000941463 0
0.0344711 0.000863047 0
0.0262476 -0.000666201 0
0 0 0
0.0406134 0.00346148 0
0.0418185 0.00425698 0
0.0268467 -0.000915023 0
0.0412911 0.00293769 0
0.0430333 0.0051536 0
0.0357029 5.59131e-05 0
0.0438078 0.00599262 0
0.0435457 0.00472556 0
0.0444808 0.00697825 0
0.0446427 0.00672253 0
0.0418927 0.00242922 0
0.044442 0.00532611 0
0.0447517 0.00765811 0
0.0447793 0.00649541 0
0.0440049 0.00429417 0
0.0448997 0.00731108 0
0.0430963 0.00318541 0
0.0449099 0.00627679 0
0.044805 0.00842619 0
0.0450872 0.00699171 0
0.044868 0.00837472 0
0.0465233 0.00895976 0
0.0450312 0.00608209 0
0.0449416 0.0083185 0
0.0471293 0.00905781 0
0.0464338 0.00877557 0
0.0450483 0.00820732 0
0.047085 0.00896232 0
0.0472355 0.00895115 0
0.0470306 0.00885131 0
0.0451575 0.00810027 0
0.0469475 0.00867642 0
0.0472788 0.00882418 0
0.0463548 0.0084529 0
0.0472111 0.00873562 0
0.0453183 0.00668526 0
0.0451711 0.00590185 0
0.0453142 0.00793527 0
0.0472742 0.00871472 0
0.0468676 0.00850969 0
0.0472714 0.00860889 0
0.0473835 0.00864378 0
0.0454672 0.0077915 0
0.0471385 0.00842851 0
0.0273684 -0.00118112 0
0.0467802 0.00827903 0
0.0472666 0.00846233 0
0.0463209 0.00803508 0
0.0473703 0.00843949 0
0.0472565 0.00832134 0
0.0475058 0.00847453 0
0.0467192 0.00807802 0
0.0150628 -0.00116955 0
0.0456725 0.00759905 0
0.0474976 0.00837422 0
0.0453102 0.00574022 0
0.0444423 0.00388968 0
0 0 0
0.0472373 0.00813617 0
0.0474893 0.00827737 0
0.0470332 0.00804067 0
0.0449871 0.00473354 0
0.0473583 0.00816522 0
0.0456158 0.00640186 0
0.0466765 0.00782449 0
0.0474779 0.00814327 0
0.0458657 0.00743425 0
0.0476731 0.00824068 0
0.0472128 0.00796992 0
0.0474711 0.00802365 0
0.04641 0.00758523 0
0.0476636 0.00806211 0
0.0466872 0.00761902 0
0.047347 0.00784808 0
0.0471915 0.00776486 0
0.0474662 0.00787107 0
0.0454801 0.00557874 0
0.0478468 0.00802706 0
0.0461158 0.00724756 0
0.0469789 0.00761879 0
0.0478424 0.00794777 0
0.0476551 0.00784845 0
0.04747 0.00774035 0
0.0478399 0.00787719 0
0.0471839 0.00758829 0
0.042474 0.00191782 0
0.046742 0.00738005 0
0.0478403 0.0077851 0
0.0474808 0.00757845 0
0.046346 0.00707697 0
0.0478422 0.00770231 0
0.0473526 0.00750868 0
0.0481202 0.0077848 0
0.0476634 0.00761097 0
0.0466609 0.00715635 0
0.0460005 0.00612095 0
0.0456555 0.00542659 0
0.0472041 0.0073666 0
0.0478508 0.00759708 0
0.0468432 0.00717643 0
0.0481198 0.00767639 0
0.0474973 0.0074295 0
0.0470624 0.00718075 0
0.0478626 0.00749927 0
0.0481284 0.00754171 0
0.0466337 0.00688349 0
0.0483906 0.00760257 0
0.0472452 0.00716526 0
0.0477052 0.00733029 0
0.0483935 0.00756106 0
0.0475329 0.00723695 0
0.0478855 0.00736802 0
0.0483973 0.00752088 0
0.0448472 0.00349886 0
0.0469953 0.00693727 0
0.0474207 0.00711195 0
0.0458656 0.00525782 0
0.0484033 0.00746409 0
0.0481532 0.00736745 0
0.0479145 0.00724463 0
0.0484109 0.00740863 0
0.0475828 0.00705928 0
0.0468912 0.00668896 0
0.047326 0.00691703 0
0.0470331 0.00670669 0
0.0484243 0.00733085 0
0.048789 0.00741574 0
0.0455426 0.00421052 0
0.0471638 0.00671537 0
0.047963 0.00708312 0
0.0484403 0.00725547 0
0.0464777 0.00579297 0
0.0478039 0.00699146 0
0.0487921 0.00734951 0
0.0482086 0.00714172 0
0.0473043 0.00670363 0
0.0460806 0.00509016 0
0.0476689 0.00683731 0
0.0474398 0.00668853 0
0.048467 0.00715155 0
0.0488027 0.00725451 0
0.04802 0.00693203 0
0.047194 0.00644681 0
0.0476135 0.00666045 0
0.0491537 0.0072604 0
0.0484972 0.00705152 0
0.0491557 0.00723204 0
0.0473791 0.00644304 0
0.0488275 0.00712112 0
0.0491583 0.00720361 0
0.0477755 0.006632 0
0.0491634 0.00716165 0
0.0483128 0.00685658 0
0.0481089 0.00673685 0
0.048545 0.00691598 0
0.0491698 0.00711975 0
0.0476187 0.00641947 0
0.0463316 0.00488839 0
0.0479941 0.00659202 0
0.0474483 0.00618817 0
0.045239 0.00311294 0
0.0491805 0.00705937 0
0.0488769 0.00693754 0
0.047526 0.0061853 0
0.044177 0.00219437 0
0.0485966 0.00678495 0
0.0491933 0.00699902 0
0.0476017 0.00618145 0
0.0496238 0.00708052 0
0.0482044 0.00655176 0
0.0479331 0.00637598 0
0.0430085 0.00139207 0
0.0477079 0.00617355 0
0.0496264 0.00702927 0
0.049214 0.0069134 0
0.0470268 0.00535441 0
0.0478109 0.00616417 0
0.0465806 0.0046812 0
0.0486744 0.00660738 0
0.0496337 0.00695343 0
0.0492372 0.00682773 0
0.0484853 0.0064939 0
0.0479571 0.00614779 0
0.0489641 0.00668717 0
0.0477419 0.00587443 0
0.0483446 0.00630634 0
0.0461112 0.0036767 0
0.0480996 0.00612898 0
0.0496506 0.00684181 0
0.0492735 0.00670741 0
0.0500413 0.00691471 0
0.0478687 0.00586377 0
0.0366737 -0.000814248 0
0.0487549 0.00643283 0
0.0500426 0.00689055 0
0.0500443 0.00686619 0
0.0482965 0.00609882 0
0.0500475 0.00683012 0
0.0493129 0.00658653 0
0.0480561 0.00584358 0
0.0500514 0.00679355 0
0.0496846 0.0066791 0
0.0468637 0.00442115 0
0.048487 0.00606505 0
0.0456151 0.00272309 0
0.050058 0.00674 0
0.0491042 0.00634362 0
0.0278182 -0.0014597 0
0.0480009 0.0055563 0
0.0488717 0.00619412 0
0.0483199 0.00580694 0
0.0500659 0.00668553 0
0.0480617 0.00555004 0
0.0493722 0.00641806 0
0.0481225 0.00554338 0
0.0487439 0.00601272 0
0.0500789 0.00660668 0
0.0482083 0.00553297 0
0.0505389 0.00670393 0
0.0497461 0.00644428 0
0.0482938 0.00552169 0
0.0505409 0.00665514 0
0.0500938 0.00652624 0
0.0494349 0.0062478 0
0.0476174 0.00475138 0
0.0486798 0.00574264 0
0.0489907 0.00595531 0
0.0484161 0.0055038 0
0.0471364 0.00415222 0
0.0505457 0.00658254 0
0.0501176 0.00641136 0
0.0485369 0.00548428 0
0.0483055 0.00516013 0
0.0505564 0.00647475 0
0.0495257 0.0060131 0
0.0487059 0.00545365 0
0.0501443 0.00629398 0
0.0493138 0.00586918 0
0.0435133 0.000845006 0
0.0484128 0.00514437 0
0.0498483 0.00610902 0
0.0466783 0.00308596 0
0.0509737 0.00649092 0
0.0459755 0.0023169 0
0.0491533 0.00563382 0
0.0488713 0.00542007 0
0.0509746 0.00646584 0
0.0485707 0.00511845 0
0.0505777 0.00631575 0
0.0509757 0.0064406 0
0.0501851 0.00612886 0
0.0509777 0.00640364 0
0.0474411 0.00381396 0
0.0496199 0.00577541 0
0.05098 0.00636627 0
0.0490969 0.0053682 0
0.0487951 0.0050759 0
0.0509841 0.00631186 0
0.0502296 0.00596016 0
0.0509888 0.00625662 0
0.048583 0.00475529 0
0.0506174 0.00608359 0
0.048634 0.0047461 0
0.0493153 0.00531127 0
0.0486847 0.00473662 0
0.0509968 0.00617689 0
0.0487581 0.00472224 0
0.0491049 0.00500587 0
0.050006 0.00563813 0
0.0497494 0.00545477 0
0.0510061 0.00609562 0
0.048831 0.00470726 0
0.0502947 0.00572713 0
0.0514617 0.00620597 0
0.0477282 0.00346588 0
0.0489358 0.00468446 0
0.0496042 0.00522529 0
0.0514633 0.00615253 0
0.0482483 0.00394297 0
0.0510209 0.00597975 0
0.0463122 0.00189859 0
0.0490394 0.00466043 0
0.0450766 0.00113199 0
0.0506858 0.00574947 0
0.0514667 0.00607462 0
0.0510379 0.00586135 0
0.0503636 0.00548961 0
0.0491849 0.00462409 0
0.0495182 0.00489108 0
0.0498794 0.00513125 0
0.0514736 0.00596087 0
0.0489061 0.00423594 0
0.0493277 0.0045854 0
0.0472252 0.00240954 0
0.0510641 0.00569503 0
0.0489981 0.00421438 0
0.0439616 0.000282276 0
0.0514869 0.00579535 0
0.0495232 0.00452738 0
0.0491328 0.00418071 0
0.0518744 0.00590831 0
0.0480433 0.00303072 0
0.0504593 0.00516848 0
0.05023 0.00499282 0
0.0510931 0.00552496 0
0.0518751 0.00587983 0
0.0518759 0.0058513 0
0.0507949 0.00527782 0
0.0518773 0.00581034 0
0.0493243 0.00412816 0
0.0497134 0.00446513 0
0.050046 0.00470529 0
0.0518789 0.00576916 0
0.0515114 0.00555626 0
0.0466283 0.00145778 0
0 0 0
0.0518816 0.00571009 0
0.051136 0.0052902 0
0.0518846 0.00565046 0
0.0505567 0.00484251 0
0.0491987 0.00370583 0
0.0281834 -0.0017621 0
0.0499659 0.00437292 0
0.0495897 0.00404598 0
0.0492415 0.00369372 0
0.0518896 0.00556541 0
0.0492842 0.00368139 0
0.0493466 0.00366286 0
0.0518953 0.00547925 0
0.051182 0.00505047 0
0.0494086 0.00364385 0
0.048331 0.00258556 0
0.051554 0.00521479 0
0.0502079 0.0042736 0
0.0494976 0.00361549 0
0.0519043 0.00535752 0
0.0499453 0.00391734 0
0.0495857 0.00358617 0
0.0523042 0.00550913 0
0.0488976 0.00288114 0
0.0509542 0.00462732 0
0.0506839 0.00441097 0
0.0519145 0.0052338 0
0.0523055 0.00544692 0
0.0497095 0.00354277 0
0.0512465 0.00472603 0
0.0477356 0.00162732 0
0.052308 0.00535869 0
0.050518 0.00412898 0
0.0469123 0.00100365 0
0.0498311 0.00349753 0
0.0519302 0.00506121 0
0.044361 -0.000299807 0
0.0523124 0.00523281 0
0.0495255 0.00303233 0
0.0516228 0.00473466 0
0.0499979 0.00343112 0
0.0519475 0.00488541 0
0.0496032 0.00300506 0
0.0504028 0.00371672 0
0.0513131 0.00439561 0
0.0373645 -0.0017541 0
0.0486391 0.00203538 0
0.0508087 0.00397324 0
0.0523205 0.00505325 0
0.0497164 0.00296342 0
0.0501604 0.00336128 0
0.0519731 0.0046439 0
0.0498777 0.00290016 0
0.0526404 0.00508674 0
0.0457989 3.46372e-07 0
0.052641 0.00505275 0
0.0503766 0.00325978 0
0.0523347 0.0047983 0
0.0526416 0.00501881 0
0.0526426 0.0049714 0
0.0471725 0.000523456 0
0.0514011 0.00395765 0
0.0526437 0.00492392 0
0.0511648 0.00375126 0
0.0520005 0.00439778 0
0.0501013 0.00280423 0
0.0526455 0.00485723 0
0.0505845 0.00315224 0
0.0517249 0.0040728 0
0.0526474 0.00479023 0
0.0509608 0.00340702 0
0.0498106 0.00234866 0
0.0498463 0.00233375 0
0.0526503 0.00469624 0
0.0523586 0.00443942 0
0.0489087 0.00147556 0
0.0498818 0.00231868 0
0.0499339 0.00229614 0
0.0526536 0.00460153 0
0.052039 0.00406565 0
0.0504014 0.00265895 0
0.0499855 0.00227325 0
0.0508515 0.00299791 0
0.0514879 0.00351298 0
0.0500598 0.00223941 0
0.0481944 0.000720709 0
0.0526586 0.0044695 0
0.0446983 -0.000897069 0
0.0501332 0.00220481 0
0.052664 0.00433608 0
0.0502364 0.00215423 0
0.049513 0.00152245 0
0.0155289 -0.00143143 0
0.0520788 0.0037276 0
0.0473971 3.24201e-05 0
0.0511028 0.00283366 0
0.0529413 0.00452566 0
0.0523964 0.00394049 0
0.0503378 0.00210215 0
0.0526722 0.00415195 0
0.0507884 0.0024394 0
0.0529424 0.00444979 0
0.0284678 -0.00207305 0
0.0504768 0.00202677 0
0.0529442 0.00434582 0
0.0518608 0.00318129 0
0.052681 0.00396547 0
0.0515943 0.00293707 0
0.0529469 0.0042016 0
0.0491827 0.000792767 0
0.0506123 0.00194856 0
0.050106 0.00149979 0
0.0521311 0.0032805 0
0.0514117 0.00260165 0
0.0501701 0.0014671 0
0.0526936 0.00371145 0
0.0529513 0.00400069 0
0.0502635 0.00141777 0
0.0507927 0.00183648 0
0.0524511 0.00325831 0
0.0512621 0.00210928 0
0.0503964 0.00134393 0
0.0475956 -0.00048845 0
0.0527068 0.00345386 0
0.0509661 0.00171929 0
0.0521821 0.00282676 0
0.0529581 0.00372124 0
0.0516929 0.00235432 0
0.0449804 -0.00151368 0
0.0531263 0.00392738 0
0.0505803 0.00123406 0
0.0531268 0.00388498 0
0.0531274 0.00384271 0
0.0531281 0.00378578 0
0.0527247 0.00310854 0
0.0463166 -0.00120255 0
0.0485791 -0.000331049 0
0.0511891 0.00155324 0
0.0531288 0.0037289 0
0.0494054 0.000101365 0
0.0529684 0.00333495 0
0.0531298 0.00365124 0
0.050827 0.00107127 0
0.0531308 0.00357349 0
0.0503428 0.000642769 0
0.0503718 0.000625218 0
0.0504007 0.000607531 0
0.0522435 0.00223983 0
0.0520181 0.00201161 0
0.0531322 0.00346679 0
0.0527425 0.00275842 0
0.0513991 0.00137848 0
0.0504431 0.000581207 0
0.0504852 0.000554589 0
0.0531337 0.00335975 0
0.0477573 -0.00101738 0
0.0518017 0.00161782 0
0.0525207 0.0023448 0
0.0505456 0.00051548 0
0.0531357 0.00321312 0
0.0506053 0.000475762 0
0.0529826 0.00280642 0
0.0511446 0.000830883 0
0.050689 0.000418118 0
0.0531376 0.0030657 0
0.051657 0.0011341 0
0.0500114 -0.000167958 0
0.0527645 0.00229774 0
0.0507713 0.000359255 0
0 0 0
0.0522981 0.00164653 0
0.0531402 0.00286514 0
0.050884 0.000274816 0
0.0451957 -0.00214391 0
0.053207 0.00314403 0
0.0377571 -0.00276822 0
0.0531426 0.00266314 0
0.0496072 -0.000728873 0
0.0509936 0.000188033 0
0.0532079 0.00304741 0
0.0518917 0.000875767 0
0.0286594 -0.00241755 0
0.0527842 0.0018315 0
0.0532091 0.00292046 0
0.0478892 -0.00158082 0
0.0515326 0.000477443 0
0.0529997 0.00209347 0
0.0511393 6.49296e-05 0
0.0531454 0.00239124 0
0.0505524 -0.000394685 0
0.0532104 0.00275041 0
0.0506041 -0.000432422 0
0.0506791 -0.00048898 0
0.0512792 -6.24752e-05 0
0.0523543 0.000897351 0
0.0531476 0.00211706 0
0.0525922 0.00115132 0
0.0532118 0.00252023 0
0.0488572 -0.00154995 0
0.0507856 -0.000572861 0
0.0521624 0.000520229 0
0.0528047 0.00123077 0
0.0514586 -0.000241161 0
0.0532129 0.00220778 0
0.0531495 0.00175312 0
0.0509327 -0.000696186 0
0.0519727 -3.87063e-05 0
0.0479826 -0.00215032 0
0.0466216 -0.00246515 0
0.0497423 -0.00156584 0
0.0530136 0.00114925 0
0.051627 -0.000427346 0
0.045351 -0.00278942 0
0.0531479 0.00230528 0
0.0511292 -0.000876231 0
0.0531497 0.00138607 0
0.0531483 0.00225021 0
0.0532126 0.00178496 0
0.0523941 0.000143616 0
0.0531487 0.00219533 0
0.0528182 0.000624879 0
0.0531491 0.00212465 0
0.0531494 0.00205413 0
0.0531498 0.00196129 0
0.0506822 -0.00143647 0
0.0518329 -0.000685262 0
0.0507052 -0.00145644 0
0.0507281 -0.00147652 0
0.05315 0.00186855 0
0.0507617 -0.00150633 0
0.0513808 -0.00113758 0
0.0531473 0.000906989 0
0.050795 -0.00153637 0
0.0531501 0.00174496 0
0.0508428 -0.00158036 0
0.0532088 0.00121727 0
0.0531499 0.00162133 0
0.05089 -0.00162484 0
0.0509561 -0.00168907 0
0.048041 -0.00275975 0
0.0520192 -0.000955542 0
0.0531494 0.0014559 0
0.0526346 -0.000365051 0
0.0528238 -0.000137939 0
0.0510208 -0.00175431 0
0.053141 0.000424347 0
0.0531485 0.00129021 0
0.0524178 -0.000784272 0
0.0502802 -0.00221152 0
0.0511092 -0.00184731 0
0.0530094 -7.35475e-05 0
0.0516856 -0.00151493 0
0.0531465 0.00106899 0
0.0498229 -0.00255266 0
0.051195 -0.00194225 0
0.045438 -0.00344639 0
0.0531964 0.000464332 0
0.0287586 -0.00276157 0
0.0531438 0.000847208 0
0.0522319 -0.00132463 0
0.0489841 -0.00295692 0
0.0513086 -0.00207592 0
0.053127 -0.000193413 0
0.0529025 0.00122698 0
0.0528143 -0.000903781 0
0.0531389 0.000553253 0
0.0529032 0.00109935 0
0.0514172 -0.0022132 0
0.0480594 -0.00337361 0
0.0529038 0.00093948 0
0.0507366 -0.00266488 0
0.0507772 -0.00270708 0
0.0531326 0.000258368 0
0.0524112 -0.0017129 0
0.0520264 -0.00205635 0
0.0529037 0.000734088 0
0.0508359 -0.00277005 0
0.0515555 -0.00240414 0
0.0531052 -0.000814135 0
0.050919 -0.00286288 0
0.0467158 -0.00377598 0
0.0531658 -0.000518194 0
0.0529024 0.000465722 0
0.0531219 -0.000128043 0
0.0516844 -0.00260145 0
0.0510332 -0.00299827 0
0.0378373 -0.00386094 0
0.0527805 -0.00184425 0
0.0498194 -0.0035431 0
0.0528986 0.000112057 0
0.0529572 -0.00161622 0
0.0454643 -0.0041149 0
0.0531085 -0.00051566 0
0.0525921 -0.00223421 0
0.0511847 -0.00319389 0
0.0518405 -0.00287247 0
0.0480356 -0.00403305 0
0.0530662 -0.00159141 0
0.0528897 -0.000354644 0
0 0 0
0.0530869 -0.00101611 0
0.0523608 -0.00282626 0
0.0524977 7.17876e-05 0
0.0513767 -0.00347429 0
0.0519798 -0.00315416 0
0.052498 -1.99196e-06 0
0.0524982 -7.55433e-05 0
0.0156032 -0.00172307 0
0.0506883 -0.00389091 0
0.0524982 -0.000165683 0
0.0530994 -0.00177452 0
0.0507061 -0.00391294 0
0.0507238 -0.00393507 0
0.0524981 -0.000255594 0
0.0527198 -0.00278339 0
0.0507498 -0.00396784 0
0.0528716 -0.000967638 0
0.0530603 -0.00151763 0
0.0524977 -0.000368847 0
0.0507755 -0.00400081 0
0.0530127 -0.00236928 0
0.0508124 -0.00404896 0
0.052497 -0.000481875 0
0.0508488 -0.00409751 0
0.0521355 -0.00353581 0
0.0524958 -0.000626995 0
0.0516057 -0.00387333 0
0.0508995 -0.00416738 0
0.0489036 -0.00456839 0
0.0287534 -0.00315151 0
0.052494 -0.000771901 0
0.0479696 -0.00469546 0
0.0509491 -0.00423808 0
0.0454237 -0.00479249 0
0.0524912 -0.000960001 0
0.0510165 -0.00433842 0
0.0530192 -0.0021537 0
0.0497225 -0.00468645 0
0.0501865 -0.0046083 0
0.0524876 -0.0011479 0
0.0510816 -0.00444035 0
0.0528366 -0.00176498 0
0.0522626 -0.0039343 0
0.0524817 -0.00139268 0
0.0528071 -0.0035063 0
0.0511673 -0.00458308 0
0.0529264 -0.00332025 0
0.0466048 -0.00512654 0
0.0518547 -0.00443714 0
0.0526098 -0.00390671 0
0.0524746 -0.00163725 0
0.0512485 -0.00472878 0
0.0529693 -0.00278973 0
0.0529675 -0.00334253 0
0.0524635 -0.00195498 0
0.051351 -0.00493012 0
0.0523834 -0.00446569 0
0.0478526 -0.00540857 0
0.0518219 -0.00138004 0
0.0527723 -0.00278745 0
0.0505122 -0.00529743 0
0.0524502 -0.00227243 0
0.0518225 -0.00155254 0
0.0505436 -0.00534319 0
0.0514453 -0.00513675 0
0.0505888 -0.00541129 0
0.0453246 -0.00547877 0
0.0518223 -0.00175816 0
0.0528948 -0.00358006 0
0.052816 -0.00426708 0
0.0506524 -0.00551128 0
0.05243 -0.00268158 0
0.0518207 -0.00201024 0
0.0515575 -0.00541854 0
0.0520848 -0.00522679 0
0.0507393 -0.00565629 0
0.0495247 -0.00582812 0
0.0524581 -0.00502193 0
0.0518167 -0.00232616 0
0.0524061 -0.00309013 0
0.0508534 -0.00586426 0
0.0516551 -0.00570927 0
0.0528059 -0.00436761 0
0.0518083 -0.00272784 0
0.047691 -0.00612301 0
0.0526592 -0.00407474 0
0.0523705 -0.00361037 0
0.0509961 -0.00615954 0
0.0286431 -0.00352261 0
0.0375945 -0.00503439 0
0.0526508 -0.00539521 0
0.0517602 -0.00610025 0
0.0485505 -0.00639174 0
0.0517921 -0.00324205 0
0.052725 -0.00524614 0
0.0524883 -0.00574994 0
0.0451631 -0.00617125 0
0.0523289 -0.0041292 0
0.051162 -0.006575 0
0.0526775 -0.00532415 0
0.0502138 -0.00669037 0
0.0509796 -0.00292904 0
0.0502273 -0.00671395 0
0.0502408 -0.00673762 0
0.0518407 -0.00650551 0
0.0462961 -0.00650984 0
0.0509797 -0.00302925 0
0.0522253 -0.00631956 0
0.0502607 -0.00677262 0
0.0517627 -0.00390019 0
0.0502805 -0.00680778 0
0.0509797 -0.00312924 0
0.0503088 -0.00685903 0
0.0509792 -0.00324578 0
0.0503366 -0.00691061 0
0.0522685 -0.00477962 0
0.0509784 -0.00336207 0
0.0503753 -0.00698466 0
0.0509771 -0.00350163 0
0.0504129 -0.00705937 0
0.0474675 -0.00689208 0
0.0509754 -0.0036409 0
0.0491941 -0.00711461 0
0.0524493 -0.00651191 0
0.0504638 -0.00716507 0
0.0524678 -0.00565971 0
0.0509726 -0.00381201 0
0.0513346 -0.00715441 0
0.0505127 -0.00727205 0
0.0519076 -0.0070421 0
0.0517111 -0.00473735 0
0.0509691 -0.00398276 0
0.0521988 -0.00542686 0
0.0525271 -0.0062729 0
0.0495968 -0.00732733 0
0 0 0
0.0505765 -0.00742124 0
0.0509639 -0.00419616 0
0.0449469 -0.00687002 0
0.0506363 -0.00757282 0
0.0509577 -0.00440906 0
0.0509484 -0.00467775 0
0.0507108 -0.00778121 0
0.0519347 -0.00759997 0
0.0520997 -0.00622323 0
0.0509374 -0.0049457 0
0.0516237 -0.00579008 0
0.0507782 -0.00799389 0
0.051478 -0.00795474 0
0.052311 -0.00748756 0
0.0471983 -0.00766001 0
0.0509213 -0.00528488 0
0.0523176 -0.00739695 0
0.0521654 -0.0078066 0
0.0284124 -0.00395019 0
0.0508563 -0.00828216 0
0.0497417 -0.00824182 0
0.0509025 -0.00562289 0
0.0497664 -0.00828996 0
0.0519866 -0.00701318 0
0.0498017 -0.00836146 0
0.0497953 -0.00482224 0
0.0519136 -0.00832545 0
0.0521573 -0.00756121 0
0.049851 -0.00846617 0
0.0509218 -0.00857771 0
0.0508753 -0.00604941 0
0.0497956 -0.00505589 0
0.0487518 -0.00838991 0
0.0446756 -0.00757105 0
0.0499178 -0.00861739 0
0.0497945 -0.00532156 0
0.0457985 -0.00791863 0
0.0514804 -0.00709282 0
0.0478587 -0.00841905 0
0.050844 -0.006474 0
0.0500047 -0.00883307 0
0.0509879 -0.00897252 0
0.0497911 -0.00563186 0
0.0520764 -0.00850564 0
0.0515286 -0.0090471 0
0.0518301 -0.00796459 0
0.0497842 -0.00600317 0
0.0501116 -0.0091371 0
0.0468544 -0.00848423 0
0.0518319 -0.00908013 0
0.0507991 -0.00700534 0
0.0510327 -0.00937897 0
0.0370201 -0.00627724 0
0.0497713 -0.00645598 0
0.0507481 -0.0075334 0
0.0502325 -0.00956099 0
0.01523 -0.0020257 0
0.0516535 -0.00890427 0
0.0497489 -0.007015 0
0.0443544 -0.00827519 0
0.0510587 -0.00991348 0
0.0512529 -0.00867257 0
0.0506762 -0.00818595 0