# vtk DataFile Version 3.0
File generated from DClib
ASCII

DATASET UNSTRUCTURED_GRID
POINTS 1909 float
50 0 0 
48.75 0 0 
50 1.66667 0 
47.5 0 0 
50 3.33333 0 
46.25 0 0 
50 5 0 
45 0 0 
43.75 0 0 
50 6.66667 0 
43 2 0 
42.5 0 0 
50 8.33333 0 
43 4.66667 0 
41.25 0 0 
41.075 2 0 
50 10 0 
40 0 0 
43 7.33333 0 
39.15 2 0 
38.75 0 0 
43 10 0 
37.5 0 0 
37.225 2 0 
36.25 0 0 
36 4 0 
35.3 2 0 
36 5 0 
35 0 0 
35.325 4 0 
36 6 0 
36 7 0 
34.65 4 0 
36 8 0 
33.75 0 0 
33.975 4 0 
36 9 0 
33.375 2 0 
33.3 4 0 
36 10 0 
32.5 0 0 
32.625 4 0 
33 6 0 
31.95 4 0 
33 7.45455 0 
31.45 2 0 
31.25 0 0 
31.95 6 0 
33 8.79545 0 
31.275 4 0 
33 10 0 
30.6 4 0 
30 0 0 
30.9 6 0 
29.925 4 0 
29.525 2 0 
29.85 6 0 
29.25 4 0 
28.75 0 0 
30 8 0 
30 8.45455 0 
28.575 4 0 
29.625 8 0 
30 8.90909 0 
28.8 6 0 
30 9.25 0 
29.782 8.90909 0 
30 9.59091 0 
29.9487 9.59091 0 
29.25 8 0 
29.7462 9.25 0 
30 9.79545 0 
29.897 9.59091 0 
29.564 8.90909 0 
29.9547 9.79545 0 
29.3462 8.45455 0 
29.84 9.59091 0 
30 10 0 
29.8975 9.79545 0 
29.9882 10 0 
29.9902 10.0098 0 
29.7827 9.59091 0 
29.9765 10 0 
29.9804 10.0196 0 
29.9667 10.0098 0 
29.9591 10 0 
29.9686 10.0196 0 
29.9659 10.0341 0 
29.9569 10.0196 0 
29.9418 10 0 
29.9395 10.0196 0 
29.9515 10.0485 0 
29.932 10.0098 0 
29.9424 10.0341 0 
29.8241 9.79545 0 
29.7181 9.59091 0 
29.9166 10 0 
29.9397 10.0485 0 
29.9222 10.0196 0 
29.9279 10.0485 0 
29.9305 10.0695 0 
29.8914 10 0 
29.9077 10.0341 0 
27.9 4 0 
29.897 10.0196 0 
29.9106 10.0485 0 
29.8817 10.0098 0 
29.907 10.0695 0 
29.8933 10.0485 0 
29.9095 10.0905 0 
29.8719 10.0196 0 
27.6 2 0 
29.8556 10 0 
29.8978 10.0905 0 
29.6531 9.59091 0 
29.3437 8.90909 0 
27.5 0 0 
29.8681 10.0485 0 
29.886 10.0905 0 
29.8574 10.0341 0 
29.4839 9.25 0 
29.8723 10.0695 0 
29.7289 9.79545 0 
29.836 10.0196 0 
29.8687 10.0905 0 
29.8197 10 0 
29.8797 10.1203 0 
29.843 10.0485 0 
29.8513 10.0905 0 
29.81 10.0098 0 
29.8561 10.1203 0 
29.8002 10.0196 0 
29.8221 10.0695 0 
29.8072 10.0485 0 
29.8262 10.0905 0 
29.5782 9.59091 0 
29.8498 10.1502 0 
29.7695 10 0 
29.7858 10.0341 0 
29.838 10.1502 0 
29.8215 10.1203 0 
29.8011 10.0905 0 
29.8262 10.1502 0 
29.7714 10.0485 0 
28.875 8 0 
29.75 10.0196 0 
29.8089 10.1502 0 
29.7654 10.0905 0 
29.7193 10 0 
29.7916 10.1502 0 
29.7505 10.0695 0 
29.8079 10.1921 0 
29.7713 10.1203 0 
29.7096 10.0098 0 
29.6047 9.79545 0 
29.503 9.59091 0 
29.7213 10.0485 0 
29.7665 10.1502 0 
29.6999 10.0196 0 
29.7844 10.1921 0 
29.7296 10.0905 0 
29.6856 10.0341 0 
29.7414 10.1502 0 
29.7497 10.1921 0 
29.6503 10 0 
29.7661 10.2339 0 
29.6712 10.0485 0 
29.6999 10.1203 0 
29.7543 10.2339 0 
29.6796 10.0905 0 
29.7057 10.1502 0 
29.7425 10.2339 0 
29.1235 8.90909 0 
29.6309 10.0196 0 
29.6504 10.0695 0 
29.4146 9.59091 0 
29.7252 10.2339 0 
29.6996 10.1921 0 
29.6701 10.1502 0 
29.7079 10.2339 0 
29.6296 10.0905 0 
29.5813 10 0 
29.6023 10.0485 0 
29.5716 10.0098 0 
29.6828 10.2339 0 
29.7086 10.2914 0 
29.2101 9.25 0 
29.562 10.0196 0 
29.6201 10.1502 0 
29.6578 10.2339 0 
29.4428 9.79545 0 
29.5999 10.1203 0 
29.6849 10.2914 0 
29.6283 10.1921 0 
29.5477 10.0341 0 
29.3259 9.59091 0 
29.5608 10.0905 0 
29.5335 10.0485 0 
29.6221 10.2339 0 
29.6503 10.2914 0 
29.5702 10.1502 0 
29.4881 10 0 
29.5128 10.0695 0 
29.6511 10.3489 0 
29.5866 10.2339 0 
29.6392 10.3489 0 
29.4689 10.0196 0 
29.6002 10.2914 0 
29.6273 10.3489 0 
29.4921 10.0905 0 
29.61 10.3489 0 
29.5286 10.1921 0 
29.5016 10.1502 0 
29.5368 10.2339 0 
29.5926 10.3489 0 
29.4405 10.0485 0 
29.2199 9.59091 0 
29.4626 10.1203 0 
29.3949 10 0 
28.9 8.90909 0 
29.5676 10.3489 0 
29.5291 10.2914 0 
29.3853 10.0098 0 
28.6923 8.45455 0 
29.487 10.2339 0 
29.5426 10.3489 0 
29.3758 10.0196 0 
29.5734 10.4266 0 
29.4331 10.1502 0 
29.3993 10.0905 0 
28.5 8 0 
29.3617 10.0341 0 
29.5496 10.4266 0 
29.5071 10.3489 0 
29.2327 9.79545 0 
29.3475 10.0485 0 
29.1136 9.59091 0 
29.4187 10.2339 0 
29.5148 10.4266 0 
29.4716 10.3489 0 
29.3918 10.1921 0 
29.3271 10.0695 0 
29.4298 10.2914 0 
29.2714 10 0 
29.3406 10.1502 0 
28.9208 9.25 0 
29.3066 10.0905 0 
29.4648 10.4266 0 
29.422 10.3489 0 
29.4958 10.5042 0 
29.2524 10.0196 0 
27.75 6 0 
29.3504 10.2339 0 
29.4837 10.5042 0 
29.4718 10.5042 0 
29.2774 10.1203 0 
29.4543 10.5042 0 
29.3724 10.3489 0 
29.2244 10.0485 0 
29.4369 10.5042 0 
29.3938 10.4266 0 
28.9853 9.59091 0 
29.2481 10.1502 0 
28.6766 8.90909 0 
29.4119 10.5042 0 
29.2934 10.2914 0 
27.225 4 0 
29.148 10 0 
29.2582 10.2339 0 
29.1837 10.0905 0 
29.3869 10.5042 0 
29.1385 10.0098 0 
29.3044 10.3489 0 
29.1291 10.0196 0 
29.2072 10.1921 0 
29.3514 10.5042 0 
29.1152 10.0341 0 
29.3929 10.6071 0 
29.2949 10.4266 0 
29.1013 10.0485 0 
29.3686 10.6071 0 
29.316 10.5042 0 
29.2364 10.3489 0 
28.9623 9.79545 0 
29.1257 10.1502 0 
29.1662 10.2339 0 
29.0811 10.0695 0 
28.8566 9.59091 0 
29.3336 10.6071 0 
29.2666 10.5042 0 
29.0609 10.0905 0 
28.9875 10 0 
29.2835 10.6071 0 
29.1448 10.3489 0 
29.0321 10.1203 0 
29.2173 10.5042 0 
29.1098 10.2914 0 
28.125 8 0 
28.9688 10.0196 0 
29.1594 10.4266 0 
28.611 9.25 0 
29.29 10.71 0 
28.4486 8.90909 0 
29.0443 10.2339 0 
29.0033 10.1502 0 
29.2777 10.71 0 
28.9413 10.0485 0 
29.2128 10.6071 0 
29.2655 10.71 0 
29.1497 10.5042 0 
29.2478 10.71 0 
28.7003 9.59091 0 
29.0533 10.3489 0 
29.2303 10.71 0 
28.9629 10.1921 0 
28.9013 10.0905 0 
29.2051 10.71 0 
29.0822 10.5042 0 
29.1801 10.71 0 
28.827 10 0 
29.1144 10.6071 0 
28.8177 10.0098 0 
28.9225 10.2339 0 
28.8085 10.0196 0 
29.1447 10.71 0 
28.7949 10.0341 0 
28.8443 10.1502 0 
28.977 10.4266 0 
28.9322 10.3489 0 
29.1094 10.71 0 
28.7813 10.0485 0 
28.9912 10.5042 0 
29.1562 10.8438 0 
28.5436 9.59091 0 
28.7615 10.0695 0 
28.8669 10.2914 0 
29.1313 10.8438 0 
28.6184 9.79545 0 
29.0602 10.71 0 
28.2207 8.90909 0 
28.7418 10.0905 0 
28.0378 8.45455 0 
28.9798 10.6071 0 
29.0958 10.8438 0 
29.0112 10.71 0 
28.9005 10.5042 0 
28.7136 10.1203 0 
28.7644 10.2339 0 
28.8113 10.3489 0 
29.0454 10.8438 0 
28.6223 10 0 
28.6854 10.1502 0 
28.2746 9.25 0 
28.9441 10.71 0 
28.6042 10.0196 0 
27.75 8 0 
28.9747 10.8438 0 
28.6459 10.1921 0 
28.5773 10.0485 0 
29.0225 10.9775 0 
28.3532 9.59091 0 
28.7804 10.5042 0 
28.736 10.4266 0 
28.8772 10.71 0 
29.0097 10.9775 0 
28.9971 10.9775 0 
28.799 10.6071 0 
28.9791 10.9775 0 
28.5384 10.0905 0 
28.6064 10.2339 0 
28.6543 10.3489 0 
28.9611 10.9775 0 
28.8769 10.8438 0 
27.9867 8.90909 0 
26.25 0 0 
28.9358 10.9775 0 
28.7871 10.71 0 
28.9106 10.9775 0 
28.6607 10.5042 0 
28.4177 10 0 
26.55 4 0 
28.552 10.2914 0 
28.483 10.1502 0 
28.4087 10.0098 0 
28.8751 10.9775 0 
28.3998 10.0196 0 
28.3866 10.0341 0 
28.8399 10.9775 0 
28.6974 10.71 0 
28.3735 10.0485 0 
28.1625 9.59091 0 
28.7436 10.8438 0 
28.4976 10.3489 0 
28.3543 10.0695 0 
28.791 10.9775 0 
28.4052 10.2339 0 
28.3352 10.0905 0 
28.8519 11.1481 0 
28.1869 9.79545 0 
28.5607 10.6071 0 
28.5053 10.5042 0 
28.7423 10.9775 0 
28.8258 11.1481 0 
28.308 10.1203 0 
28.5787 10.71 0 
27.904 9.25 0 
28.7893 11.1481 0 
28.424 10.4266 0 
27.7528 8.90909 0 
28.2807 10.1502 0 
28.6758 10.9775 0 
27.375 8 0 
28.7383 11.1481 0 
28.1619 10 0 
28.5649 10.8438 0 
28.2425 10.1921 0 
28.6096 10.9775 0 
28.1444 10.0196 0 
28.298 10.3489 0 
28.4605 10.71 0 
26.7 6 0 
27.9315 9.59091 0 
28.3503 10.5042 0 
28.6676 11.1481 0 
28.1187 10.0485 0 
28.2042 10.2339 0 
28.5207 10.9775 0 
28.0813 10.0905 0 
28.6814 11.3186 0 
27.3818 8.45455 0 
28.6679 11.3186 0 
28.1516 10.2914 0 
28.5703 11.1481 0 
28.6544 11.3186 0 
28.6358 11.3186 0 
27.5109 8.90909 0 
28.3072 10.71 0 
28.6173 11.3186 0 
28.2524 10.6071 0 
28.4322 10.9775 0 
28.028 10.1502 0 
28.5915 11.3186 0 
28.0989 10.3489 0 
28.33 10.8438 0 
28.5658 11.3186 0 
28.153 10.5042 0 
27.9061 10 0 
27.8975 10.0098 0 
28.5303 11.3186 0 
28.4384 11.1481 0 
27.7002 9.59091 0 
27.889 10.0196 0 
27.8765 10.0341 0 
28.4949 11.3186 0 
28.3154 10.9775 0 
27.9532 10.2339 0 
27.8639 10.0485 0 
28.0276 10.4266 0 
28.1544 10.71 0 
27.8457 10.0695 0 
27.4909 9.25 0 
28.4463 11.3186 0 
27 8 0 
27.8275 10.0905 0 
28.3979 11.3186 0 
27.8015 10.1203 0 
27.6542 9.79545 0 
25.675 2 0 
28.1991 10.9775 0 
27.2691 8.90909 0 
27.9563 10.5042 0 
28.4682 11.5318 0 
28.2625 11.1481 0 
27.7755 10.1502 0 
28.3322 11.3186 0 
27.8502 10.3489 0 
28.4401 11.5318 0 
25.875 4 0 
27.7391 10.1921 0 
28.4019 11.5318 0 
28.0268 10.8438 0 
28.2668 11.3186 0 
27.9602 10.71 0 
28.3498 11.5318 0 
27.4223 9.59091 0 
27.7026 10.2339 0 
27.5927 10 0 
28.0486 10.9775 0 
27.8616 10.6071 0 
27.5762 10.0196 0 
28.1794 11.3186 0 
28.2786 11.5318 0 
27.5519 10.0485 0 
27.6524 10.2914 0 
28.0319 11.1481 0 
27.7108 10.5042 0 
27.5167 10.0905 0 
27.0169 8.90909 0 
28.0924 11.3186 0 
27.6021 10.3489 0 
27.8988 10.9775 0 
28.1818 11.5318 0 
27.7667 10.71 0 
26.625 8 0 
28.255 11.745 0 
27.4664 10.1502 0 
28.2402 11.745 0 
28.2256 11.745 0 
28.2059 11.745 0 
27.978 11.3186 0 
26.7234 8.45455 0 
27.0259 9.25 0 
27.5342 10.4266 0 
28.1863 11.745 0 
27.1442 9.59091 0 
28.0516 11.5318 0 
28.1598 11.745 0 
27.3959 10.2339 0 
28.1334 11.745 0 
27.2793 10 0 
27.2714 10.0098 0 
27.2635 10.0196 0 
27.7086 10.9775 0 
27.6431 10.8438 0 
28.0975 11.745 0 
27.8643 11.3186 0 
27.4661 10.5042 0 
27.2518 10.0341 0 
27.2401 10.0485 0 
28.0617 11.745 0 
26.7648 8.90909 0 
27.5255 10.71 0 
27.7353 11.1481 0 
27.2231 10.0695 0 
28.0133 11.745 0 
27.2061 10.0905 0 
27.8791 11.5318 0 
27.2986 10.3489 0 
27.1818 10.1203 0 
27.9651 11.745 0 
27.3758 10.6071 0 
27.0077 9.79545 0 
27.7174 11.3186 0 
27.1576 10.1502 0 
25 0 0 
27.5193 10.9775 0 
27.9003 11.745 0 
27.1236 10.1921 0 
26.25 8 0 
27.9939 12.0061 0 
25.65 6 0 
27.8359 11.745 0 
26.8136 9.59091 0 
27.0896 10.2339 0 
27.9626 12.0061 0 
27.2853 10.71 0 
25.2 4 0 
27.5713 11.3186 0 
27.9218 12.0061 0 
26.4998 8.90909 0 
27.167 10.5042 0 
27.6541 11.5318 0 
27.0427 10.2914 0 
27.7503 11.745 0 
26.9033 10 0 
27.8677 12.0061 0 
26.8882 10.0196 0 
26.8659 10.0485 0 
26.9958 10.3489 0 
27.2836 10.9775 0 
27.6652 11.745 0 
27.3609 11.1481 0 
27.7955 12.0061 0 
26.499 9.25 0 
[...]
POINT_DATA 1909
SCALARS phi float 1
LOOKUP_TABLE default
VECTORS Displacement float
0 0 0
0 0 0
0 -0.000666207 0
0 0 0
0 -0.000263228 0
0 0 0
0 0.00108149 0
0 0 0
0 0 0
0 0.0032619 0
0.00616822 -0.00029913 0
0 0 0
0 0.00622015 0
0.0118383 0.00209375 0
0 0 0
0.00826687 -0.000299062 0
0 0.00980904 0
0 0 0
0.0157573 0.00698468 0
0.0104862 -0.000341624 0
0 0 0
0.0180748 0.0134457 0
0 0 0
0.0127668 -0.000451273 0
0 0 0
0.024033 0.00144074 0
0.0149877 -0.000616156 0
0.0287324 0.00324055 0
0 0 0
0.0257376 0.00131292 0
0.0321811 0.00557275 0
0.0346399 0.00826232 0
0.0273354 0.00118142 0
0.0364541 0.0111088 0
0 0 0
0.028901 0.000982947 0
0.0375796 0.0140518 0
0.0170444 -0.000822813 0
0.0303837 0.000772389 0
0.038199 0.0169577 0
0 0 0
0.0317867 0.000527713 0
0.0414135 0.004586 0
0.0331052 0.000269166 0
0.0460506 0.00880712 0
0.0188583 -0.00106563 0
0 0 0
0.044573 0.0033691 0
0.0485525 0.0136228 0
0.0343342 -1.28156e-05 0
0.048851 0.0184865 0
0.0354702 -0.000309727 0
0 0 0
0.047085 0.00229567 0
0.0365147 -0.000626655 0
0.0203627 -0.00134653 0
0.0491953 0.00120574 0
0.0374589 -0.000962181 0
0 0 0
0.0579796 0.00492432 0
0.0596848 0.00608127 0
0.0383082 -0.00131647 0
0.0589594 0.00415692 0
0.0613909 0.00738923 0
0.050946 5.19013e-05 0
0.0624377 0.00862213 0
0.0621358 0.00674074 0
0.0633141 0.0100602 0
0.0635498 0.00967155 0
0.0598224 0.00341451 0
0.0633549 0.00759462 0
0.0635303 0.0110602 0
0.0637539 0.00933197 0
0.0627899 0.00608791 0
0.0637447 0.0105601 0
0.0615197 0.00449302 0
0.0639492 0.00899928 0
0.0633811 0.0121583 0
0.0640349 0.0101045 0
0.0634692 0.0121156 0
0.0677116 0.0136331 0
0.0641341 0.00870407 0
0.0635744 0.0120606 0
0.0694343 0.0140767 0
0.0675343 0.013397 0
0.063727 0.0119241 0
0.0693048 0.0139351 0
0.0696648 0.0139437 0
0.0691527 0.0137635 0
0.0638844 0.0117828 0
0.0689295 0.0134921 0
0.0696758 0.0137618 0
0.0673361 0.0129321 0
0.0695759 0.0136263 0
0.0643994 0.00963965 0
0.0643403 0.00842182 0
0.064113 0.0115639 0
0.0696702 0.0136062 0
0.0687172 0.0132313 0
0.0696658 0.0134574 0
0.0697482 0.013513 0
0.0643383 0.0113625 0
0.0693565 0.0131758 0
0.0390483 -0.00169555 0
0.0684704 0.0128688 0
0.0696494 0.0132533 0
0.0671581 0.0122986 0
0.06973 0.0132269 0
0.0696174 0.0130509 0
0.0698089 0.0132717 0
0.068269 0.0125366 0
0.0214876 -0.00167117 0
0.0646486 0.0110686 0
0.0697984 0.0131313 0
0.0645429 0.00816842 0
0.0634069 0.00548345 0
0 0 0
0.0695475 0.0127633 0
0.069788 0.0129939 0
0.0690201 0.0125539 0
0.0641339 0.00669459 0
0.0697095 0.0128266 0
0.0648542 0.00917537 0
0.0680632 0.0120869 0
0.0697717 0.0127941 0
0.0649437 0.0108095 0
0.0699367 0.0129475 0
0.0694465 0.0124796 0
0.0697598 0.0126006 0
0.0670866 0.011518 0
0.0699136 0.0126772 0
0.0679223 0.0116966 0
0.0696524 0.0122802 0
0.0692979 0.0120876 0
0.069743 0.0123299 0
0.0647861 0.00791319 0
0.0700755 0.012634 0
0.0653268 0.0104792 0
0.0686428 0.0117521 0
0.0700643 0.0125027 0
0.0698825 0.0122991 0
0.0697315 0.0120735 0
0.0700536 0.0123739 0
0.06914 0.0117275 0
0.0606472 0.00267607 0
0.0678001 0.0112086 0
0.0700382 0.0121899 0
0.0697086 0.0117393 0
0.0656795 0.0101843 0
0.0700228 0.0120119 0
0.0695015 0.0115952 0
0.0702663 0.0122126 0
0.0698477 0.011799 0
0.0671764 0.010675 0
0.065416 0.00869973 0
0.0650308 0.00767403 0
0.0689577 0.0112733 0
0.0700024 0.011767 0
0.0677674 0.0108023 0
0.0702476 0.0119676 0
0.0696774 0.0114351 0
0.0683552 0.0108685 0
0.0699833 0.0115396 0
0.070223 0.0116309 0
0.066125 0.00985349 0
0.0704684 0.0118147 0
0.06882 0.010881 0
0.0698158 0.0112022 0
0.0704591 0.0116982 0
0.0696237 0.0110624 0
0.0699623 0.0112454 0
0.0704501 0.0115858 0
0.0639718 0.00490565 0
0.0677826 0.0103341 0
0.0692757 0.0108277 0
0.0653271 0.00741533 0
0.0704377 0.0114275 0
0.0701941 0.0112044 0
0.0699512 0.0109873 0
0.0704272 0.0112798 0
0.069565 0.0107336 0
0.066529 0.00954282 0
0.0687108 0.0104155 0
0.0674947 0.0098521 0
0.0704147 0.011082 0
0.0707583 0.011312 0
0.0649212 0.00591434 0
0.0678874 0.00993319 0
0.0699429 0.0106723 0
0.0704066 0.0109042 0
0.0661096 0.00818392 0
0.0697784 0.01056 0
0.0707476 0.0111147 0
0.0701715 0.0107174 0
0.0683165 0.00998694 0
0.0656291 0.00716402 0
0.0695008 0.0103267 0
0.0686851 0.0100097 0
0.0704006 0.0106772 0
0.0707356 0.0108594 0
0.0699421 0.0103909 0
0.0670274 0.00919236 0
0.0691239 0.0100011 0
0.0710425 0.010871 0
0.0703999 0.0104731 0
0.07104 0.0107882 0
0.0680583 0.00947067 0
0.0707273 0.0105487 0
0.0710384 0.0107104 0
0.0694555 0.00995324 0
0.0710384 0.0106029 0
0.0701765 0.0101706 0
0.0699488 0.0100353 0
0.0704074 0.0102119 0
0.0710388 0.0105021 0
0.068729 0.00952335 0
0.0659869 0.0068711 0
0.069755 0.0098345 0
0.0674747 0.00884083 0
0.0645217 0.00434596 0
0.0710435 0.0103682 0
0.0707334 0.0101748 0
0.0680345 0.00900485 0
0.0630422 0.00304967 0
0.0704198 0.00996451 0
0.0710492 0.010241 0
0.0682793 0.00904263 0
0.0714969 0.0104018 0
0.069962 0.00969701 0
0.0694456 0.0094787 0
0.0613997 0.00192249 0
0.0685713 0.00906681 0
0.0714972 0.0102776 0
0.0710588 0.01007 0
0.0669431 0.00756044 0
0.0688343 0.00907407 0
0.0663464 0.00657664 0
0.0704435 0.00963932 0
0.0715012 0.0101103 0
0.0710706 0.00990448 0
0.0702155 0.0095059 0
0.0691877 0.00906673 0
0.0707652 0.00970285 0
0.0680095 0.00841584 0
0.0699918 0.0092602 0
0.06573 0.00514308 0
0.0694843 0.0090348 0
0.0715122 0.00988357 0
0.0710904 0.00967989 0
0.0719371 0.0100187 0
0.0685744 0.00853005 0
0.0523242 -0.00118415 0
0.070475 0.0093265 0
0.0719392 0.00996686 0
0.0719415 0.00991565 0
0.0697963 0.00894911 0
0.0719454 0.0098417 0
0.0711142 0.00946179 0
0.0690226 0.00853231 0
0.0719501 0.0097684 0
0.0715377 0.0095757 0
0.0667655 0.00621671 0
0.0700356 0.00883939 0
0.0650507 0.00378909 0
0.0719575 0.0096645 0
0.0708387 0.00909784 0
0.0396861 -0.00209166 0
0.0684815 0.007973 0
0.0705297 0.00891993 0
0.0695914 0.00848369 0
0.0719663 0.00956169 0
0.0687285 0.00802042 0
0.071154 0.00916983 0
0.068891 0.00803143 0
0.0703187 0.00867767 0
0.0719805 0.0094175 0
0.0690696 0.00802236 0
0.0725393 0.0095893 0
0.071589 0.00916325 0
0.0692536 0.00801225 0
0.0725418 0.00949592 0
0.071997 0.00927549 0
0.0712011 0.00888703 0
0.0678927 0.0067379 0
0.0701202 0.00830321 0
0.0706015 0.00852825 0
0.069507 0.00798796 0
0.067174 0.00584662 0
0.072548 0.00936202 0
0.0720231 0.00907976 0
0.0697449 0.00795334 0
0.0690239 0.00741625 0
0.0725618 0.00917182 0
0.0712745 0.00851675 0
0.0700057 0.00787281 0
0.0720529 0.00888725 0
0.0709848 0.00833712 0
0.0621045 0.00114745 0
0.0692789 0.00741836 0
0.0716828 0.00862197 0
0.0665506 0.00431353 0
0.0730826 0.00919905 0
0.0655637 0.00321606 0
0.0707164 0.00803169 0
0.0702489 0.00778807 0
0.0730842 0.00915559 0
0.0695753 0.00738096 0
0.0725893 0.008906 0
0.0730862 0.00911229 0
0.0720983 0.00862685 0
0.0730898 0.00904941 0
0.0676402 0.00538353 0
0.071358 0.00815731 0
0.073094 0.00898678 0
0.0705598 0.0076685 0
0.0699826 0.00730616 0
0.0731009 0.00889703 0
0.0721481 0.0083706 0
0.0731089 0.00880752 0
0.0694859 0.00682657 0
0.0726397 0.00854038 0
0.0695795 0.00681466 0
0.0708543 0.00755212 0
0.069672 0.00680146 0
0.0731216 0.00868099 0
0.0698006 0.00677912 0
0.0704594 0.00715902 0
0.0718394 0.0079228 0
0.0714801 0.00769244 0
0.073136 0.0085546 0
0.0699258 0.00675467 0
0.0722211 0.00802866 0
0.0737414 0.00872863 0
0.0680795 0.00490402 0
0.0700994 0.00671545 0
0.0712407 0.00739438 0
0.0737436 0.00864446 0
0.068904 0.00561889 0
0.0731582 0.00837833 0
0.0660488 0.00263155 0
0.0702661 0.00667295 0
0.0643101 0.00154413 0
0.072725 0.00804437 0
0.0737483 0.00852385 0
0.0731827 0.00820196 0
0.0722977 0.00769023 0
0.0704894 0.00660898 0
0.0710542 0.00694491 0
0.0716087 0.00723594 0
0.0737583 0.00835111 0
0.0699775 0.00606471 0
0.0707023 0.00654224 0
0.0673589 0.00337579 0
0.0732192 0.00795928 0
0.0701211 0.00603218 0
0.0627301 0.000353439 0
0.0737779 0.00810527 0
0.07099 0.00644446 0
0.0703298 0.00597945 0
0.0742958 0.00827358 0
0.0685609 0.00429956 0
0.0724052 0.00724113 0
0.0720749 0.00701767 0
0.0732583 0.00771569 0
0.074297 0.00823154 0
0.0742984 0.00818954 0
0.0728571 0.00737648 0
0.074301 0.00812931 0
0.0706221 0.005895 0
0.0712649 0.00634198 0
0.0717875 0.00663952 0
0.0743039 0.00806896 0
0.0738133 0.00775854 0
0.0665089 0.00201766 0
0 0 0
0.0743085 0.00798281 0
0.0733142 0.00738451 0
0.0743137 0.00789623 0
0.072513 0.00679109 0
0.0703902 0.00528606 0
0.0402042 -0.0025219 0
0.0716248 0.00619451 0
0.0710211 0.00576289 0
0.0704568 0.00526771 0
0.0743218 0.00777351 0
0.0705229 0.00524906 0
0.070617 0.005221 0
0.0743309 0.0076498 0
0.073372 0.00705037 0
0.0707104 0.00519229 0
0.0689971 0.00367608 0
0.0738723 0.00727422 0
0.0719658 0.00603959 0
0.0708428 0.00514942 0
0.0743448 0.00747623 0
0.0715429 0.00556051 0
0.0709738 0.00510532 0
0.0748919 0.00769484 0
0.0698733 0.00411204 0
0.0730453 0.00647661 0
0.072659 0.00619397 0
0.07436 0.00730074 0
0.0748937 0.00760582 0
0.0711567 0.00504014 0
0.0734517 0.00660066 0
0.0681229 0.00228857 0
0.0748971 0.00748 0
0.0723984 0.00581971 0
0.066927 0.00138531 0
0.0713361 0.00497208 0
0.0743824 0.00705743 0
0.0632882 -0.000464796 0
0.0749034 0.00730112 0
0.070841 0.00432427 0
0.0739627 0.00660393 0
0.0715798 0.00487233 0
0.0744065 0.00681074 0
0.0709557 0.00428413 0
0.0721992 0.00525396 0
0.0735318 0.00614408 0
0.0533064 -0.00251776 0
0.0694554 0.00289914 0
0.0728025 0.00558778 0
0.0749149 0.00704703 0
0.0711239 0.0042226 0
0.0718157 0.00476772 0
0.0744409 0.00647318 0
0.0713626 0.00412894 0
0.0753523 0.00709455 0
0.0653437 -3.93453e-05 0
0.0753532 0.00704661 0
0.0721275 0.00461637 0
0.0749349 0.00668795 0
0.0753541 0.00699874 0
0.0753557 0.00693187 0
0.0673115 0.000715033 0
0.0736379 0.00553702 0
0.0753574 0.00686492 0
0.0732946 0.00526299 0
0.0744766 0.00613006 0
0.0716906 0.00398681 0
0.07536 0.00677095 0
0.0724251 0.00445695 0
0.0740905 0.00568512 0
0.0753628 0.00667658 0
0.0729865 0.00479459 0
0.0712317 0.00334878 0
0.0712846 0.00332694 0
0.0753671 0.00654431 0
0.0749674 0.0061846 0
0.0698552 0.00210535 0
0.0713373 0.00330484 0
0.071414 0.00327191 0
0.0753718 0.0064111 0
0.0745257 0.0056674 0
0.0721272 0.003772 0
0.0714899 0.0032384 0
0.0728053 0.0042297 0
0.073742 0.00491861 0
0.071599 0.00318892 0
0.0688064 0.00101563 0
0.0753787 0.00622557 0
0.0637622 -0.00130431 0
0.0717066 0.00313827 0
0.0753862 0.00603818 0
0.0718575 0.0030642 0
0.0707554 0.00217639 0
0.0221497 -0.00204379 0
0.0745751 0.00519638 0
0.0676446 2.61526e-05 0
0.0731613 0.00398946 0
0.0757647 0.00630452 0
0.0750168 0.00548664 0
0.0720053 0.00298799 0
0.0753972 0.00577977 0
0.072685 0.00344914 0
0.0757663 0.0061977 0
0.0406077 -0.00296402 0
0.0722075 0.00287772 0
0.0757687 0.00605136 0
0.0742567 0.00444306 0
0.0754087 0.00551813 0
0.0738719 0.00411286 0
0.0757724 0.00584842 0
0.0702542 0.00113326 0
0.072404 0.0027634 0
0.0716375 0.00213887 0
0.0746394 0.00457221 0
0.0735968 0.00365238 0
0.0717316 0.00209144 0
0.0754249 0.00516189 0
0.0757782 0.00556576 0
0.0718684 0.00201978 0
0.0726647 0.00259983 0
0.0750851 0.00453226 0
0.0733617 0.00296762 0
0.0720624 0.00191244 0
0.0679376 -0.000707385 0
0.0754414 0.00480059 0
0.0729146 0.00242908 0
0.0747013 0.00393719 0
0.075787 0.0051727 0
0.0739923 0.003295 0
0.0641628 -0.00217407 0
0.076013 0.00546198 0
0.0723303 0.0017527 0
0.0760137 0.00540223 0
0.0760144 0.00534267 0
0.0760154 0.00526245 0
0.0754632 0.00431609 0
0.0660936 -0.00172817 0
0.0693709 -0.000474442 0
0.0732347 0.00218767 0
0.0760163 0.0051823 0
0.0705766 0.000147593 0
0.0757998 0.0046294 0
0.0760177 0.00507286 0
0.0726882 0.00151614 0
0.076019 0.0049633 0
0.0719631 0.00091683 0
0.0720055 0.000891441 0
0.0720476 0.000865854 0
0.0747751 0.0031135 0
0.0744478 0.00280202 0
0.0760209 0.00481295 0
0.0754843 0.00382449 0
0.0735351 0.00193419 0
0.0721094 0.000827774 0
0.0721707 0.000789269 0
0.0760227 0.00466209 0
0.068175 -0.00145603 0
0.0741265 0.00225673 0
0.0751685 0.0032509 0
0.0722586 0.000732672 0
0.0760251 0.00445543 0
0.0723455 0.000675204 0
0.0758166 0.00388582 0
0.0731471 0.00116734 0
0.0724673 0.000591788 0
0.0760274 0.00424765 0
0.0739029 0.00158067 0
0.0714609 -0.000236967 0
0.0755096 0.00317693 0
0.0725868 0.000506597 0
0 0 0
0.0748396 0.00227863 0
0.0760302 0.00396492 0
0.0727502 0.000384411 0
0.0644717 -0.00306485 0
0.0761115 0.00435707 0
0.0538661 -0.00395852 0
0.0760327 0.00368012 0
0.0708658 -0.00103721 0
0.0729091 0.000258853 0
0.0761128 0.0042206 0
0.0742366 0.00120787 0
0.0408794 -0.003454 0
0.0755312 0.00252068 0
0.0761143 0.00404127 0
0.0683675 -0.00225556 0
0.0737048 0.000655793 0
0.0758346 0.0028819 0
0.0731199 8.08249e-05 0
0.0760353 0.00329667 0
0.0722515 -0.00056464 0
0.076116 0.00380104 0
0.0723265 -0.000619014 0
0.0724356 -0.000700522 0
0.0733219 -0.000103327 0
0.0749045 0.00122132 0
0.0760368 0.0029099 0
0.0752492 0.00157023 0
0.0761176 0.00347585 0
0.0697732 -0.00220943 0
0.0725902 -0.000821422 0
0.07462 0.00069609 0
0.0755519 0.0016739 0
0.0735804 -0.000361397 0
0.0761183 0.00303434 0
0.076037 0.00239629 0
0.0728036 -0.000999196 0
0.0743339 -8.8733e-05 0
0.0685029 -0.00306572 0
0.066536 -0.00351593 0
0.0710578 -0.00223181 0
0.0758447 0.00155014 0
0.0738227 -0.000630055 0
0.0646978 -0.00398131 0
0.0760134 0.00317118 0
0.0730881 -0.00125872 0
0.0760346 0.00187802 0
0.0760139 0.00309323 0
0.0761165 0.00243671 0
0.0749473 0.000155127 0
0.0760144 0.00301555 0
0.0755627 0.000818355 0
0.076015 0.00291549 0
0.0760154 0.00281566 0
0.0760158 0.00268424 0
0.0724277 -0.00205148 0
0.0741183 -0.00100179 0
0.0724611 -0.00208018 0
0.0724943 -0.00210905 0
0.0760159 0.00255295 0
0.0725431 -0.0021519 0
0.0734518 -0.0016353 0
0.0760272 0.00120115 0
0.0725914 -0.00219509 0
0.0760159 0.00237798 0
0.0726607 -0.00225833 0
0.0761085 0.00163401 0
0.0760155 0.00220295 0
0.072729 -0.00232228 0
0.0728247 -0.00241465 0
0.0685872 -0.00393382 0
0.0743851 -0.00139088 0
0.0760144 0.00196871 0
0.0752854 -0.000574164 0
0.0755601 -0.000260483 0
0.0729185 -0.00250845 0
0.0760143 0.000518762 0
0.0760127 0.0017341 0
0.0749664 -0.00116041 0
0.0718356 -0.00315485 0
0.0730465 -0.00264217 0
0.0758251 -0.000178295 0
0.0738913 -0.00217857 0
0.0760093 0.00142082 0
0.0711705 -0.00364007 0
0.0731706 -0.00277868 0
0.0648273 -0.00491553 0
0.0760868 0.000568698 0
0.04102 -0.0039433 0
0.0760048 0.00110671 0
0.0746889 -0.0019215 0
0.0699541 -0.00421537 0
0.0733349 -0.00297086 0
0.0759889 -0.000355369 0
0.0756488 0.00164343 0
0.0755369 -0.00134536 0
0.0759969 0.000690309 0
0.0756498 0.00146242 0
0.0734917 -0.00316818 0
0.0686136 -0.00480861 0
0.0756505 0.00123567 0
0.0724971 -0.00380479 0
0.0725558 -0.00386533 0
0.0759867 0.000272521 0
0.0749443 -0.00247898 0
0.0743811 -0.002957 0
0.0756503 0.000944355 0
0.0726409 -0.00395569 0
0.0736914 -0.00344259 0
0.0759523 -0.00123447 0
0.0727612 -0.0040889 0
0.0666731 -0.00538213 0
0.0760371 -0.000822655 0
0.0756482 0.000563695 0
0.0759699 -0.000275062 0
0.0738773 -0.00372606 0
0.0729264 -0.00428319 0
0.0539815 -0.00551241 0
0.0754775 -0.00267944 0
0.0711624 -0.00505326 0
0.0756421 6.20015e-05 0
0.0757341 -0.00236406 0
0.0648702 -0.0058681 0
0.075949 -0.000824496 0
0.0752008 -0.00322654 0
0.0731456 -0.00456392 0
0.0741022 -0.00411527 0
0.0685797 -0.00574883 0
0.0758898 -0.00233623 0
0.0756286 -0.000600125 0
0 0 0
0.0759159 -0.00153409 0
0.0748596 -0.00406204 0
0.0750596 4.00092e-06 0
0.0734232 -0.00496628 0
0.0743027 -0.00451963 0
0.0750601 -0.000100791 0
0.0750603 -0.000205258 0
0.0222547 -0.00245888 0
0.0724209 -0.00555381 0
0.0750603 -0.000333283 0
0.0759339 -0.0026037 0
0.0724466 -0.00558538 0
0.0724722 -0.00561708 0
0.0750601 -0.000460983 0
0.075381 -0.00401321 0
0.0725099 -0.00566406 0
0.0756011 -0.00146997 0
0.0758755 -0.00224542 0
0.0750594 -0.000621837 0
0.0725472 -0.00571131 0
0.0758069 -0.00343983 0
0.0726006 -0.0057803 0
0.0750584 -0.000782372 0
0.0726531 -0.00584988 0
0.0745264 -0.00506715 0
0.0750565 -0.000988492 0
0.0737539 -0.00553876 0
0.0727266 -0.00595003 0
0.0698363 -0.00651353 0
0.0410122 -0.00449805 0
0.0750539 -0.00119431 0
0.0684851 -0.0066932 0
0.0727983 -0.00605135 0
0.064817 -0.0068338 0
0.0750495 -0.00146149 0
0.0728958 -0.00619516 0
0.0758135 -0.00314796 0
0.0710203 -0.00668411 0
0.0716916 -0.00657459 0
0.0750441 -0.00172839 0
0.07299 -0.00634125 0
0.0755487 -0.00260172 0
0.0747087 -0.00563851 0
0.0750354 -0.00207609 0
0.0755023 -0.00504769 0
0.0731138 -0.00654582 0
0.0756761 -0.00479005 0
0.0665167 -0.00730795 0
0.0741131 -0.00634725 0
0.0752137 -0.00561006 0
0.0750249 -0.00242353 0
0.0732313 -0.00675463 0
0.075739 -0.00405081 0
0.0757349 -0.0048293 0
0.0750084 -0.00287491 0
0.0733794 -0.00704317 0
0.0748815 -0.0063999 0
0.0683176 -0.00771008 0
0.0740837 -0.00205911 0
0.0754534 -0.00405359 0
0.0721625 -0.0075599 0
0.0749888 -0.00332592 0
0.0740845 -0.00230439 0
0.0722079 -0.00762542 0
0.0735158 -0.00733927 0
0.0722733 -0.00772293 0
0.0646793 -0.0078123 0
0.0740842 -0.00259676 0
0.0756283 -0.00517315 0
0.0755114 -0.00613544 0
0.0723653 -0.00786611 0
0.074959 -0.00390727 0
0.0740818 -0.00295519 0
0.0736779 -0.00774302 0
0.0744445 -0.00747882 0
0.0724911 -0.00807376 0
0.0707342 -0.00831239 0
0.074988 -0.00719641 0
0.0740759 -0.00340439 0
0.0749239 -0.00448783 0
0.0726562 -0.00837157 0
0.073819 -0.00815953 0
0.0754973 -0.00629205 0
0.0740635 -0.00397556 0
0.0680867 -0.00872877 0
0.0752869 -0.00588237 0
0.0748717 -0.00522719 0
0.0728626 -0.00879442 0
0.0408551 -0.00502622 0
0.0536369 -0.00718208 0
0.0752676 -0.00773939 0
0.0739709 -0.00871954 0
0.0693286 -0.00911369 0
0.0740399 -0.00470677 0
0.0753767 -0.00753436 0
0.07503 -0.00823819 0
0.0644518 -0.00879934 0
0.0748111 -0.00596465 0
0.0731028 -0.00938934 0
0.075309 -0.00765157 0
0.0717303 -0.00954616 0
0.0728724 -0.00426238 0
0.0717499 -0.00957992 0
0.0717694 -0.00961378 0
0.0740871 -0.00929987 0
0.0660789 -0.00928037 0
0.0728727 -0.00440498 0
0.0746465 -0.00904341 0
0.0717983 -0.00966388 0
0.073997 -0.00564271 0
0.0718269 -0.0097142 0
0.0728725 -0.00454727 0
0.0718678 -0.00978754 0
0.0728719 -0.0047131 0
0.071908 -0.00986135 0
0.0747228 -0.00688928 0
0.0728707 -0.00487859 0
0.071964 -0.00996733 0
0.0728688 -0.00507718 0
0.0720185 -0.0100743 0
0.0677671 -0.00982548 0
0.0728662 -0.00527535 0
0.0702584 -0.0101469 0
0.0749727 -0.00932793 0
0.0720922 -0.0102255 0
0.0750072 -0.0081353 0
0.0728622 -0.00551885 0
0.0733527 -0.0102189 0
0.0721629 -0.0103786 0
0.0741839 -0.010068 0
0.0739221 -0.00683334 0
0.0728572 -0.00576183 0
0.0746214 -0.00780956 0
0.0750895 -0.00900062 0
0.0708398 -0.0104522 0
0 0 0
0.0722553 -0.0105922 0
0.0728496 -0.0060655 0
0.0641457 -0.00979534 0
0.0723419 -0.0108091 0
0.0728405 -0.00636845 0
0.072827 -0.00675081 0
0.0724499 -0.0111074 0
0.0742234 -0.0108664 0
0.0744774 -0.00894208 0
0.0728111 -0.00713212 0
0.0737953 -0.00833079 0
0.0725476 -0.0114117 0
0.0735609 -0.0113646 0
0.0747729 -0.0107225 0
0.0673827 -0.0109206 0
0.0727877 -0.00761479 0
0.0747848 -0.0105995 0
0.0745599 -0.0111705 0
0.0405268 -0.00563488 0
0.0726609 -0.0118243 0
0.0710504 -0.0117583 0
0.0727606 -0.00809583 0
0.0710862 -0.0118272 0
0.0743134 -0.0100657 0
0.0711372 -0.0119295 0
0.0711734 -0.00695719 0
0.0741937 -0.0119043 0
0.074556 -0.0108397 0
0.0712085 -0.0120793 0
0.072756 -0.0122473 0
0.0727212 -0.00870282 0
0.0711739 -0.00728988 0
0.0696233 -0.0119655 0
0.0637604 -0.0107947 0
0.0713052 -0.0122956 0
0.0711723 -0.00766816 0
0.0653712 -0.0112891 0
0.0735877 -0.0101842 0
0.0683371 -0.0120047 0
0.072676 -0.00930709 0
0.0714312 -0.0126042 0
0.0728522 -0.0128123 0
0.0711674 -0.00810999 0
0.0744353 -0.0121771 0
0.0736358 -0.0129276 0
0.0740869 -0.0114192 0
0.0711573 -0.00863868 0
0.0715861 -0.0130392 0
0.0668914 -0.0120961 0
0.074077 -0.0129835 0
0.0726112 -0.0100633 0
0.0729177 -0.0133938 0
0.0528195 -0.00895176 0
0.0711387 -0.00928342 0
0.0725375 -0.0108149 0
0.0717616 -0.0136457 0
0.0217228 -0.00288987 0
0.0738317 -0.0127564 0
0.0711064 -0.0100794 0
0.0633035 -0.0117984 0
0.0729567 -0.0141586 0
0.0732591 -0.0124322 0
0.0724338 -0.0117437 0
0.0739675 -0.0139975 0
0.0701839 -0.0139249 0
0.0701991 -0.0139599 0
0.0702141 -0.0139951 0
0.0702369 -0.0140471 0
0.07382 -0.0143572 0
0.0702593 -0.0140992 0
0.0719345 -0.0144823 0
0.0738592 -0.0139925 0
0.0702918 -0.014175 0
0.0710517 -0.0110673 0