# vtk DataFile Version 3.0
File generated from DClib
ASCII

DATASET UNSTRUCTURED_GRID
POINTS 1909 float
50 0 0 
48.75 0 0 
50 1.66667 0 
47.5 0 0 
50 3.33333 0 
46.25 0 0 
50 5 0 
45 0 0 
43.75 0 0 
50 6.66667 0 
43 2 0 
42.5 0 0 
50 8.33333 0 
43 4.66667 0 
41.25 0 0 
41.075 2 0 
50 10 0 
40 0 0 
43 7.33333 0 
39.15 2 0 
38.75 0 0 
43 10 0 
37.5 0 0 
37.225 2 0 
36.25 0 0 
36 4 0 
35.3 2 0 
36 5 0 
35 0 0 
35.325 4 0 
36 6 0 
36 7 0 
34.65 4 0 
36 8 0 
33.75 0 0 
33.975 4 0 
36 9 0 
33.375 2 0 
33.3 4 0 
36 10 0 
32.5 0 0 
32.625 4 0 
33 6 0 
31.95 4 0 
33 7.45455 0 
31.45 2 0 
31.25 0 0 
31.95 6 0 
33 8.79545 0 
31.275 4 0 
33 10 0 
30.6 4 0 
30 0 0 
30.9 6 0 
29.925 4 0 
29.525 2 0 
29.85 6 0 
29.25 4 0 
28.75 0 0 
30 8 0 
30 8.45455 0 
28.575 4 0 
29.625 8 0 
30 8.90909 0 
28.8 6 0 
30 9.25 0 
29.782 8.90909 0 
30 9.59091 0 
29.9487 9.59091 0 
29.25 8 0 
29.7462 9.25 0 
30 9.79545 0 
29.897 9.59091 0 
29.564 8.90909 0 
29.9547 9.79545 0 
29.3462 8.45455 0 
29.84 9.59091 0 
30 10 0 
29.8975 9.79545 0 
29.9882 10 0 
29.9902 10.0098 0 
29.7827 9.59091 0 
29.9765 10 0 
29.9804 10.0196 0 
29.9667 10.0098 0 
29.9591 10 0 
29.9686 10.0196 0 
29.9659 10.0341 0 
29.9569 10.0196 0 
29.9418 10 0 
29.9395 10.0196 0 
29.9515 10.0485 0 
29.932 10.0098 0 
29.9424 10.0341 0 
29.8241 9.79545 0 
29.7181 9.59091 0 
29.9166 10 0 
29.9397 10.0485 0 
29.9222 10.0196 0 
29.9279 10.0485 0 
29.9305 10.0695 0 
29.8914 10 0 
29.9077 10.0341 0 
27.9 4 0 
29.897 10.0196 0 
29.9106 10.0485 0 
29.8817 10.0098 0 
29.907 10.0695 0 
29.8933 10.0485 0 
29.9095 10.0905 0 
29.8719 10.0196 0 
27.6 2 0 
29.8556 10 0 
29.8978 10.0905 0 
29.6531 9.59091 0 
29.3437 8.90909 0 
27.5 0 0 
29.8681 10.0485 0 
29.886 10.0905 0 
29.8574 10.0341 0 
29.4839 9.25 0 
29.8723 10.0695 0 
29.7289 9.79545 0 
29.836 10.0196 0 
29.8687 10.0905 0 
29.8197 10 0 
29.8797 10.1203 0 
29.843 10.0485 0 
29.8513 10.0905 0 
29.81 10.0098 0 
29.8561 10.1203 0 
29.8002 10.0196 0 
29.8221 10.0695 0 
29.8072 10.0485 0 
29.8262 10.0905 0 
29.5782 9.59091 0 
29.8498 10.1502 0 
29.7695 10 0 
29.7858 10.0341 0 
29.838 10.1502 0 
29.8215 10.1203 0 
29.8011 10.0905 0 
29.8262 10.1502 0 
29.7714 10.0485 0 
28.875 8 0 
29.75 10.0196 0 
29.8089 10.1502 0 
29.7654 10.0905 0 
29.7193 10 0 
29.7916 10.1502 0 
29.7505 10.0695 0 
29.8079 10.1921 0 
29.7713 10.1203 0 
29.7096 10.0098 0 
29.6047 9.79545 0 
29.503 9.59091 0 
29.7213 10.0485 0 
29.7665 10.1502 0 
29.6999 10.0196 0 
29.7844 10.1921 0 
29.7296 10.0905 0 
29.6856 10.0341 0 
29.7414 10.1502 0 
29.7497 10.1921 0 
29.6503 10 0 
29.7661 10.2339 0 
29.6712 10.0485 0 
29.6999 10.1203 0 
29.7543 10.2339 0 
29.6796 10.0905 0 
29.7057 10.1502 0 
29.7425 10.2339 0 
29.1235 8.90909 0 
29.6309 10.0196 0 
29.6504 10.0695 0 
29.4146 9.59091 0 
29.7252 10.2339 0 
29.6996 10.1921 0 
29.6701 10.1502 0 
29.7079 10.2339 0 
29.6296 10.0905 0 
29.5813 10 0 
29.6023 10.0485 0 
29.5716 10.0098 0 
29.6828 10.2339 0 
29.7086 10.2914 0 
29.2101 9.25 0 
29.562 10.0196 0 
29.6201 10.1502 0 
29.6578 10.2339 0 
29.4428 9.79545 0 
29.5999 10.1203 0 
29.6849 10.2914 0 
29.6283 10.1921 0 
29.5477 10.0341 0 
29.3259 9.59091 0 
29.5608 10.0905 0 
29.5335 10.0485 0 
29.6221 10.2339 0 
29.6503 10.2914 0 
29.5702 10.1502 0 
29.4881 10 0 
29.5128 10.0695 0 
29.6511 10.3489 0 
29.5866 10.2339 0 
29.6392 10.3489 0 
29.4689 10.0196 0 
29.6002 10.2914 0 
29.6273 10.3489 0 
29.4921 10.0905 0 
29.61 10.3489 0 
29.5286 10.1921 0 
29.5016 10.1502 0 
29.5368 10.2339 0 
29.5926 10.3489 0 
29.4405 10.0485 0 
29.2199 9.59091 0 
29.4626 10.1203 0 
29.3949 10 0 
28.9 8.90909 0 
29.5676 10.3489 0 
29.5291 10.2914 0 
29.3853 10.0098 0 
28.6923 8.45455 0 
29.487 10.2339 0 
29.5426 10.3489 0 
29.3758 10.0196 0 
29.5734 10.4266 0 
29.4331 10.1502 0 
29.3993 10.0905 0 
28.5 8 0 
29.3617 10.0341 0 
29.5496 10.4266 0 
29.5071 10.3489 0 
29.2327 9.79545 0 
29.3475 10.0485 0 
29.1136 9.59091 0 
29.4187 10.2339 0 
29.5148 10.4266 0 
29.4716 10.3489 0 
29.3918 10.1921 0 
29.3271 10.0695 0 
29.4298 10.2914 0 
29.2714 10 0 
29.3406 10.1502 0 
28.9208 9.25 0 
29.3066 10.0905 0 
29.4648 10.4266 0 
29.422 10.3489 0 
29.4958 10.5042 0 
29.2524 10.0196 0 
27.75 6 0 
29.3504 10.2339 0 
29.4837 10.5042 0 
29.4718 10.5042 0 
29.2774 10.1203 0 
29.4543 10.5042 0 
29.3724 10.3489 0 
29.2244 10.0485 0 
29.4369 10.5042 0 
29.3938 10.4266 0 
28.9853 9.59091 0 
29.2481 10.1502 0 
28.6766 8.90909 0 
29.4119 10.5042 0 
29.2934 10.2914 0 
27.225 4 0 
29.148 10 0 
29.2582 10.2339 0 
29.1837 10.0905 0 
29.3869 10.5042 0 
29.1385 10.0098 0 
29.3044 10.3489 0 
29.1291 10.0196 0 
29.2072 10.1921 0 
29.3514 10.5042 0 
29.1152 10.0341 0 
29.3929 10.6071 0 
29.2949 10.4266 0 
29.1013 10.0485 0 
29.3686 10.6071 0 
29.316 10.5042 0 
29.2364 10.3489 0 
28.9623 9.79545 0 
29.1257 10.1502 0 
29.1662 10.2339 0 
29.0811 10.0695 0 
28.8566 9.59091 0 
29.3336 10.6071 0 
29.2666 10.5042 0 
29.0609 10.0905 0 
28.9875 10 0 
29.2835 10.6071 0 
29.1448 10.3489 0 
29.0321 10.1203 0 
29.2173 10.5042 0 
29.1098 10.2914 0 
28.125 8 0 
28.9688 10.0196 0 
29.1594 10.4266 0 
28.611 9.25 0 
29.29 10.71 0 
28.4486 8.90909 0 
29.0443 10.2339 0 
29.0033 10.1502 0 
29.2777 10.71 0 
28.9413 10.0485 0 
29.2128 10.6071 0 
29.2655 10.71 0 
29.1497 10.5042 0 
29.2478 10.71 0 
28.7003 9.59091 0 
29.0533 10.3489 0 
29.2303 10.71 0 
28.9629 10.1921 0 
28.9013 10.0905 0 
29.2051 10.71 0 
29.0822 10.5042 0 
29.1801 10.71 0 
28.827 10 0 
29.1144 10.6071 0 
28.8177 10.0098 0 
28.9225 10.2339 0 
28.8085 10.0196 0 
29.1447 10.71 0 
28.7949 10.0341 0 
28.8443 10.1502 0 
28.977 10.4266 0 
28.9322 10.3489 0 
29.1094 10.71 0 
28.7813 10.0485 0 
28.9912 10.5042 0 
29.1562 10.8438 0 
28.5436 9.59091 0 
28.7615 10.0695 0 
28.8669 10.2914 0 
29.1313 10.8438 0 
28.6184 9.79545 0 
29.0602 10.71 0 
28.2207 8.90909 0 
28.7418 10.0905 0 
28.0378 8.45455 0 
28.9798 10.6071 0 
29.0958 10.8438 0 
29.0112 10.71 0 
28.9005 10.5042 0 
28.7136 10.1203 0 
28.7644 10.2339 0 
28.8113 10.3489 0 
29.0454 10.8438 0 
28.6223 10 0 
28.6854 10.1502 0 
28.2746 9.25 0 
28.9441 10.71 0 
28.6042 10.0196 0 
27.75 8 0 
28.9747 10.8438 0 
28.6459 10.1921 0 
28.5773 10.0485 0 
29.0225 10.9775 0 
28.3532 9.59091 0 
28.7804 10.5042 0 
28.736 10.4266 0 
28.8772 10.71 0 
29.0097 10.9775 0 
28.9971 10.9775 0 
28.799 10.6071 0 
28.9791 10.9775 0 
28.5384 10.0905 0 
28.6064 10.2339 0 
28.6543 10.3489 0 
28.9611 10.9775 0 
28.8769 10.8438 0 
27.9867 8.90909 0 
26.25 0 0 
28.9358 10.9775 0 
28.7871 10.71 0 
28.9106 10.9775 0 
28.6607 10.5042 0 
28.4177 10 0 
26.55 4 0 
28.552 10.2914 0 
28.483 10.1502 0 
28.4087 10.0098 0 
28.8751 10.9775 0 
28.3998 10.0196 0 
28.3866 10.0341 0 
28.8399 10.9775 0 
28.6974 10.71 0 
28.3735 10.0485 0 
28.1625 9.59091 0 
28.7436 10.8438 0 
28.4976 10.3489 0 
28.3543 10.0695 0 
28.791 10.9775 0 
28.4052 10.2339 0 
28.3352 10.0905 0 
28.8519 11.1481 0 
28.1869 9.79545 0 
28.5607 10.6071 0 
28.5053 10.5042 0 
28.7423 10.9775 0 
28.8258 11.1481 0 
28.308 10.1203 0 
28.5787 10.71 0 
27.904 9.25 0 
28.7893 11.1481 0 
28.424 10.4266 0 
27.7528 8.90909 0 
28.2807 10.1502 0 
28.6758 10.9775 0 
27.375 8 0 
28.7383 11.1481 0 
28.1619 10 0 
28.5649 10.8438 0 
28.2425 10.1921 0 
28.6096 10.9775 0 
28.1444 10.0196 0 
28.298 10.3489 0 
28.4605 10.71 0 
26.7 6 0 
27.9315 9.59091 0 
28.3503 10.5042 0 
28.6676 11.1481 0 
28.1187 10.0485 0 
28.2042 10.2339 0 
28.5207 10.9775 0 
28.0813 10.0905 0 
28.6814 11.3186 0 
27.3818 8.45455 0 
28.6679 11.3186 0 
28.1516 10.2914 0 
28.5703 11.1481 0 
28.6544 11.3186 0 
28.6358 11.3186 0 
27.5109 8.90909 0 
28.3072 10.71 0 
28.6173 11.3186 0 
28.2524 10.6071 0 
28.4322 10.9775 0 
28.028 10.1502 0 
28.5915 11.3186 0 
28.0989 10.3489 0 
28.33 10.8438 0 
28.5658 11.3186 0 
28.153 10.5042 0 
27.9061 10 0 
27.8975 10.0098 0 
28.5303 11.3186 0 
28.4384 11.1481 0 
27.7002 9.59091 0 
27.889 10.0196 0 
27.8765 10.0341 0 
28.4949 11.3186 0 
28.3154 10.9775 0 
27.9532 10.2339 0 
27.8639 10.0485 0 
28.0276 10.4266 0 
28.1544 10.71 0 
27.8457 10.0695 0 
27.4909 9.25 0 
28.4463 11.3186 0 
27 8 0 
27.8275 10.0905 0 
28.3979 11.3186 0 
27.8015 10.1203 0 
27.6542 9.79545 0 
25.675 2 0 
28.1991 10.9775 0 
27.2691 8.90909 0 
27.9563 10.5042 0 
28.4682 11.5318 0 
28.2625 11.1481 0 
27.7755 10.1502 0 
28.3322 11.3186 0 
27.8502 10.3489 0 
28.4401 11.5318 0 
25.875 4 0 
27.7391 10.1921 0 
28.4019 11.5318 0 
28.0268 10.8438 0 
28.2668 11.3186 0 
27.9602 10.71 0 
28.3498 11.5318 0 
27.4223 9.59091 0 
27.7026 10.2339 0 
27.5927 10 0 
28.0486 10.9775 0 
27.8616 10.6071 0 
27.5762 10.0196 0 
28.1794 11.3186 0 
28.2786 11.5318 0 
27.5519 10.0485 0 
27.6524 10.2914 0 
28.0319 11.1481 0 
27.7108 10.5042 0 
27.5167 10.0905 0 
27.0169 8.90909 0 
28.0924 11.3186 0 
27.6021 10.3489 0 
27.8988 10.9775 0 
28.1818 11.5318 0 
27.7667 10.71 0 
26.625 8 0 
28.255 11.745 0 
27.4664 10.1502 0 
28.2402 11.745 0 
28.2256 11.745 0 
28.2059 11.745 0 
27.978 11.3186 0 
26.7234 8.45455 0 
27.0259 9.25 0 
27.5342 10.4266 0 
28.1863 11.745 0 
27.1442 9.59091 0 
28.0516 11.5318 0 
28.1598 11.745 0 
27.3959 10.2339 0 
28.1334 11.745 0 
27.2793 10 0 
27.2714 10.0098 0 
27.2635 10.0196 0 
27.7086 10.9775 0 
27.6431 10.8438 0 
28.0975 11.745 0 
27.8643 11.3186 0 
27.4661 10.5042 0 
27.2518 10.0341 0 
27.2401 10.0485 0 
28.0617 11.745 0 
26.7648 8.90909 0 
27.5255 10.71 0 
27.7353 11.1481 0 
27.2231 10.0695 0 
28.0133 11.745 0 
27.2061 10.0905 0 
27.8791 11.5318 0 
27.2986 10.3489 0 
27.1818 10.1203 0 
27.9651 11.745 0 
27.3758 10.6071 0 
27.0077 9.79545 0 
27.7174 11.3186 0 
27.1576 10.1502 0 
25 0 0 
27.5193 10.9775 0 
27.9003 11.745 0 
27.1236 10.1921 0 
26.25 8 0 
27.9939 12.0061 0 
25.65 6 0 
27.8359 11.745 0 
26.8136 9.59091 0 
27.0896 10.2339 0 
27.9626 12.0061 0 
27.2853 10.71 0 
25.2 4 0 
27.5713 11.3186 0 
27.9218 12.0061 0 
26.4998 8.90909 0 
27.167 10.5042 0 
27.6541 11.5318 0 
27.0427 10.2914 0 
27.7503 11.745 0 
26.9033 10 0 
27.8677 12.0061 0 
26.8882 10.0196 0 
26.8659 10.0485 0 
26.9958 10.3489 0 
27.2836 10.9775 0 
27.6652 11.745 0 
27.3609 11.1481 0 
27.7955 12.0061 0 
26.499 9.25 0 
[...]
POINT_DATA 1909
SCALARS phi float 1
LOOKUP_TABLE default
VECTORS Displacement float
0 0 0
0 0 0
0 -0.00194969 0
0 0 0
0 -0.000964353 0
0 0 0
0 0.00262674 0
0 0 0
0 0 0
0 0.0085502 0
0.0170642 -0.00068099 0
0 0 0
0 0.0165573 0
0.0322079 0.00609453 0
0 0 0
0.0230924 -0.000666519 0
0 0.025857 0
0 0 0
0.0423868 0.0193071 0
0.0295145 -0.000797598 0
0 0 0
0.0477951 0.0367949 0
0 0 0
0.0361367 -0.00114492 0
0 0 0
0.0673956 0.00450074 0
0.0425694 -0.00166773 0
0.07983 0.00979261 0
0 0 0
0.0723327 0.00411559 0
0.0883345 0.0165158 0
0.0938028 0.024145 0
0.0770064 0.00370588 0
0.0972018 0.0319273 0
0 0 0
0.0816011 0.00309006 0
0.0998452 0.0400265 0
0.048474 -0.00231806 0
0.0859599 0.0024304 0
0.102379 0.0491731 0
0 0 0
0.0900774 0.00166566 0
0.11627 0.0139782 0
0.0939377 0.000854776 0
0.127637 0.0275565 0
0.0535957 -0.00306687 0
0 0 0
0.125864 0.0102464 0
0.132873 0.0450762 0
0.0975202 -2.66964e-05 0
0.134085 0.0692552 0
0.100806 -0.000952493 0
0 0 0
0.13347 0.00691721 0
0.1038 -0.00193149 0
0.0577383 -0.00390688 0
0.139823 0.00348882 0
0.106471 -0.00296048 0
0 0 0
0.165156 0.0153007 0
0.170415 0.0192235 0
0.108838 -0.00402978 0
0.168296 0.0128886 0
0.175898 0.0241083 0
0.145002 -0.000122359 0
0.179889 0.0311788 0
0.178405 0.0216727 0
0.18407 0.041406 0
0.184841 0.0389562 0
0.171068 0.010535 0
0.183137 0.0263795 0
0.18497 0.0483843 0
0.185588 0.036999 0
0.180638 0.0195232 0
0.185692 0.0458725 0
0.176504 0.0141745 0
0.186316 0.0350824 0
0.185238 0.0562063 0
0.18667 0.0430468 0
0.185599 0.0564284 0
0.231186 0.0728621 0
0.18699 0.0334302 0
0.186013 0.0564156 0
0.261023 0.082856 0
0.23005 0.0721784 0
0.186654 0.0563447 0
0.259721 0.0821383 0
0.263652 0.0825214 0
0.258275 0.0812301 0
0.187352 0.0561184 0
0.255853 0.0799551 0
0.2637 0.0817549 0
0.228113 0.0706006 0
0.262437 0.0810195 0
0.188011 0.0400609 0
0.187657 0.0317916 0
0.188378 0.0554145 0
0.26361 0.0811078 0
0.253462 0.0785281 0
0.263531 0.0804912 0
0.264093 0.0809493 0
0.189439 0.0546636 0
0.259728 0.0788491 0
0.110862 -0.00516419 0
0.250247 0.0763265 0
0.26322 0.0796546 0
0.225786 0.0675031 0
0.263911 0.079731 0
0.262758 0.0786825 0
0.263773 0.079965 0
0.247233 0.074114 0
0.0607226 -0.00484684 0
0.190863 0.0530709 0
0.263706 0.0793383 0
0.18826 0.0303122 0
0.182791 0.0175764 0
0 0 0
0.261782 0.0770838 0
0.263619 0.0786727 0
0.255401 0.0750984 0
0.185939 0.0228468 0
0.263508 0.0776919 0
0.189769 0.0369818 0
0.243613 0.0707623 0
0.263467 0.0776029 0
0.192247 0.0515558 0
0.263373 0.0785136 0
0.260408 0.0753112 0
0.263306 0.0764682 0
0.223342 0.0624814 0
0.263215 0.0770443 0
0.240281 0.0676126 0
0.262306 0.074234 0
0.258224 0.0725137 0
0.263026 0.0747535 0
0.188898 0.0287918 0
0.262818 0.0768382 0
0.193971 0.049157 0
0.249473 0.0691275 0
0.26272 0.0760525 0
0.262937 0.0747045 0
0.262712 0.0729996 0
0.26262 0.0752479 0
0.255738 0.069722 0
0.173786 0.00812227 0
0.23643 0.0632972 0
0.262465 0.0740434 0
0.262078 0.0705329 0
0.195525 0.0469317 0
0.262304 0.0728302 0
0.259423 0.0690377 0
0.261961 0.0743039 0
0.262477 0.071212 0
0.220821 0.0557856 0
0.191903 0.0338038 0
0.189478 0.0273646 0
0.252262 0.0657923 0
0.262069 0.0710716 0
0.233118 0.0594455 0
0.261781 0.0726497 0
0.261219 0.0680952 0
0.242182 0.0612466 0
0.261833 0.0693439 0
0.2615 0.0702224 0
0.197365 0.0440902 0
0.261092 0.0716897 0
0.248772 0.0621263 0
0.261604 0.0664119 0
0.260991 0.0708509 0
0.259663 0.0648066 0
0.261499 0.0669538 0
0.260889 0.0700219 0
0.18473 0.0156385 0
0.229428 0.0547037 0
0.254227 0.0621057 0
0.190156 0.0258681 0
0.260743 0.0688178 0
0.261082 0.0668336 0
0.261183 0.0646833 0
0.260598 0.0676398 0
0.257713 0.0616628 0
0.198889 0.0414522 0
0.244293 0.0574394 0
0.218224 0.0481876 0
0.260396 0.0659808 0
0.259916 0.0681125 0
0.188498 0.0196764 0
0.226495 0.0505943 0
0.26066 0.0617197 0
0.2602 0.0643848 0
0.194307 0.0305117 0
0.259557 0.0603657 0
0.259739 0.0665124 0
0.260512 0.0624058 0
0.234247 0.0523013 0
0.190808 0.024445 0
0.254659 0.0576436 0
0.240213 0.0532564 0
0.259929 0.0622202 0
0.259482 0.0642614 0
0.260052 0.0589747 0
0.200623 0.0385299 0
0.246635 0.0538422 0
0.258757 0.0646865 0
0.259668 0.060183 0
0.258671 0.0639213 0
0.223279 0.0459604 0
0.259123 0.0612225 0
0.258587 0.0631738 0
0.251355 0.0539218 0
0.258466 0.0621033 0
0.259741 0.0570125 0
0.258866 0.0555561 0
0.259326 0.0575215 0
0.258349 0.0610675 0
0.235335 0.0483403 0
0.191634 0.0229315 0
0.255148 0.0532792 0
0.201966 0.0358018 0
0.186522 0.0136936 0
0.258185 0.0596237 0
0.258652 0.0573216 0
0.215483 0.040467 0
0.181401 0.00937742 0
0.259013 0.0550834 0
0.258028 0.0582446 0
0.220873 0.0419893 0
0.25741 0.0604103 0
0.257298 0.0523887 0
0.246798 0.049405 0
0.176245 0.00565194 0
0.226527 0.0432597 0
0.257261 0.0590315 0
0.257815 0.0563825 0
0.196837 0.0270133 0
0.231233 0.0440782 0
0.192495 0.0215134 0
0.258571 0.0520225 0
0.257051 0.0571231 0
0.257616 0.0546332 0
0.258199 0.0508326 0
0.237363 0.0449262 0
0.258074 0.0526 0
0.203446 0.0329372 0
0.254591 0.0485545 0
0.19092 0.0165882 0
0.242366 0.0453372 0
0.256766 0.0545706 0
0.257352 0.0523543 0
0.256045 0.056481 0
0.218182 0.0376656 0
0.148966 -0.00391183 0
0.258103 0.0492633 0
0.255983 0.0558484 0
0.255922 0.0552318 0
0.247641 0.0453449 0
0.255837 0.0543534 0
0.257106 0.0502468 0
0.226677 0.0393194 0
0.255754 0.0535039 0
0.256394 0.0513 0
0.193542 0.019922 0
0.251416 0.0449898 0
0.188179 0.0117416 0
0.255637 0.0523235 0
0.257405 0.0471724 0
0.112568 -0.00632677 0
0.204559 0.0302251 0
0.257147 0.0459231 0
0.236908 0.0405818 0
0.255524 0.0511936 0
0.212653 0.0329545 0
0.256794 0.0475794 0
0.21619 0.0339092 0
0.254327 0.0439968 0
0.255369 0.0496641 0
0.219796 0.0346597 0
0.254573 0.051868 0
0.255935 0.0472883 0
0.223114 0.03524 0
0.254466 0.0507528 0
0.25522 0.0482162 0
0.25651 0.0451465 0
0.199334 0.0230577 0
0.24681 0.0407263 0
0.25578 0.0428467 0
0.227834 0.0359525 0
0.194612 0.0183935 0
0.254315 0.0492182 0
0.25502 0.0463098 0
0.232113 0.0364196 0
0.205752 0.0272718 0
0.254111 0.0471585 0
0.256136 0.0421307 0
0.237549 0.0367838 0
0.254831 0.0445238 0
0.256165 0.0411131 0
0.178485 0.00314097 0
0.213961 0.0297654 0
0.255396 0.0425613 0
0.193205 0.0133945 0
0.253034 0.0476926 0
0.189691 0.00972939 0
0.253237 0.0391829 0
0.242057 0.0368159 0
0.252996 0.0471893 0
0.219483 0.0307635 0
0.253841 0.0444815 0
0.252958 0.0466974 0
0.254582 0.0422373 0
0.252905 0.0459997 0
0.195867 0.0165992 0
0.255747 0.0394004 0
0.252853 0.0453213 0
0.246746 0.0364168 0
0.226893 0.0316762 0
0.252779 0.0443774 0
0.254348 0.0401116 0
0.252708 0.0434657 0
0.206664 0.0244316 0
0.253496 0.0411225 0
0.210369 0.025599 0
0.250028 0.0357345 0
0.212499 0.0261301 0
0.252606 0.0422237 0
0.214724 0.0265442 0
0.236202 0.0321975 0
0.254796 0.0371654 0
0.254893 0.0361125 0
0.252506 0.0410337 0
0.216838 0.026881 0
0.25405 0.0374533 0
0.251376 0.0429206 0
0.197098 0.0148375 0
0.219862 0.0272904 0
0.252485 0.0344535 0
0.251308 0.0420193 0
0.20167 0.0183327 0
0.252368 0.0394502 0
0.191091 0.00772165 0
0.222844 0.0276154 0
0.185325 0.00436184 0
0.253065 0.0370473 0
0.251211 0.0407822 0
0.252232 0.0379452 0
0.253772 0.0350006 0
0.227034 0.0279544 0
0.245279 0.031632 0
0.253571 0.0330712 0
0.251078 0.039111 0
0.207609 0.0211642 0
0.230991 0.0281204 0
0.19538 0.0100032 0
0.252046 0.0359911 0
0.211158 0.0220865 0
0.180421 0.000596442 0
0.250899 0.0369077 0
0.236 0.0281018 0
0.214513 0.0225999 0
0.249705 0.038568 0
0.198506 0.012727 0
0.253417 0.0319903 0
0.253657 0.0311357 0
0.251864 0.0341492 0
0.249681 0.0381537 0
0.249657 0.0377472 0
0.252537 0.0322614 0
0.249623 0.0371769 0
0.219084 0.0230485 0
0.240232 0.0278141 0
0.25102 0.0295026 0
0.24959 0.0366194 0
0.250664 0.0340871 0
0.192382 0.00565602 0
0 0 0
0.249542 0.0358462 0
0.251624 0.0318225 0
0.249495 0.0350941 0
0.253042 0.0292498 0
0.208365 0.0179921 0
0.113912 -0.00758045 0
0.24464 0.0270743 0
0.225645 0.0233751 0
0.209607 0.0182908 0
0.249427 0.0340678 0
0.210589 0.0184716 0
0.211817 0.0186397 0
0.24936 0.033076 0
0.251391 0.0296512 0
0.213036 0.0187802 0
0.199828 0.0106338 0
0.250362 0.0305953 0
0.247705 0.0261102 0
0.214799 0.0189458 0
0.249265 0.03175 0
0.234217 0.0232535 0
0.21656 0.0190736 0
0.247837 0.0335903 0
0.203828 0.0126478 0
0.251936 0.0268395 0
0.252187 0.0259937 0
0.249172 0.03048 0
0.247797 0.0328273 0
0.2191 0.0192018 0
0.251096 0.0269849 0
0.197455 0.00632337 0
0.247741 0.0317937 0
0.249955 0.0245633 0
0.193545 0.00358351 0
0.221703 0.0192796 0
0.249045 0.0288221 0
0.182089 -0.00197152 0
0.247663 0.0304041 0
0.209048 0.0142359 0
0.249979 0.0264291 0
0.225388 0.0192903 0
0.248923 0.0272517 0
0.210327 0.0143984 0
0.24285 0.0220605 0
0.250825 0.0245137 0
0.151678 -0.00788564 0
0.201285 0.00811919 0
0.250852 0.0229503 0
0.247556 0.0285689 0
0.212036 0.0145012 0
0.229005 0.0191693 0
0.248763 0.0252511 0
0.214615 0.0145809 0
0.245942 0.0289919 0
0.188341 -0.00074642 0
0.245928 0.0286346 0
0.233624 0.0187898 0
0.247413 0.0262065 0
0.245915 0.0282839 0
0.245898 0.0278022 0
0.194604 0.00144022 0
0.250441 0.0214797 0
0.24588 0.0273307 0
0.250754 0.0207697 0
0.24861 0.0233663 0
0.218404 0.0145475 0
0.245856 0.0266849 0
0.237647 0.0181759 0
0.24948 0.0215858 0
0.245832 0.0260557 0
0.248287 0.0193199 0
0.20962 0.0105956 0
0.210031 0.0106029 0
0.245799 0.0252023 0
0.247221 0.0232533 0
0.20258 0.00561049 0
0.210437 0.0106036 0
0.210997 0.0105815 0
0.245766 0.0243758 0
0.248411 0.0210032 0
0.224038 0.0142712 0
0.211598 0.0105648 0
0.241871 0.0170565 0
0.249999 0.0186141 0
0.212514 0.0105374 0
0.199358 0.00224494 0
0.245719 0.0232718 0
0.183452 -0.00455777 0
0.213472 0.0105049 0
0.245673 0.0222078 0
0.214863 0.0104358 0
0.205962 0.00602165 0
0.0623505 -0.00589783 0
0.248191 0.0187317 0
0.195522 -0.000712391 0
0.244817 0.0157327 0
0.243889 0.0238089 0
0.246962 0.0196331 0
0.216286 0.0103433 0
0.24561 0.0208109 0
0.231721 0.0134284 0
0.24387 0.0231372 0
0.114914 -0.00884529 0
0.218361 0.0101795 0
0.243844 0.0222501 0
0.248761 0.0158651 0
0.245542 0.0194612 0
0.249041 0.0151278 0
0.243806 0.0210756 0
0.203891 0.00260136 0
0.220531 0.00997624 0
0.21016 0.00637214 0
0.247873 0.0158909 0
0.246913 0.0137772 0
0.210678 0.00627643 0
0.245451 0.0177125 0
0.243752 0.0195306 0
0.211483 0.00613254 0
0.223621 0.00961469 0
0.246579 0.0151735 0
0.23981 0.0114362 0
0.212772 0.00592479 0
0.196327 -0.00295695 0
0.245347 0.0160069 0
0.226769 0.00914878 0
0.247503 0.0131522 0
0.243676 0.0175192 0
0.247623 0.0117757 0
0.18456 -0.00717927 0
0.241735 0.0189646 0
0.21479 0.00560177 0
0.241733 0.0186421 0
0.24173 0.0183248 0
0.241728 0.0179028 0
0.245187 0.0138118 0
0.190447 -0.00593753 0
0.200997 -0.00231235 0
0.230831 0.00833076 0
0.241725 0.0174877 0
0.204965 -0.000402289 0
0.243564 0.014919 0
0.241721 0.0169309 0
0.217811 0.00504586 0
0.241715 0.016383 0
0.210595 0.00224529 0
0.210806 0.00218472 0
0.21103 0.00212727 0
0.246958 0.00977063 0
0.247281 0.00914264 0
0.241709 0.0156475 0
0.245003 0.0116716 0
0.234512 0.00730595 0
0.211327 0.00202963 0
0.211628 0.00193101 0
0.241699 0.0149233 0
0.196979 -0.00520899 0
0.244904 0.00781785 0
0.245943 0.00972579 0
0.212085 0.00178869 0
0.241683 0.0139541 0
0.212552 0.0016436 0
0.243381 0.0115795 0
0.222355 0.00408038 0
0.213256 0.00143655 0
0.241662 0.0129986 0
0.238421 0.00569908 0
0.208069 -0.00152285 0
0.244731 0.00896805 0
0.213997 0.00122587 0
0 0 0
0.246342 0.00653261 0
0.241624 0.0117293 0
0.215064 0.000914416 0
0.185371 -0.00981385 0
0.239313 0.0134727 0
0.153113 -0.0120643 0
0.241579 0.0104783 0
0.205891 -0.00396536 0
0.216174 0.000586149 0
0.239312 0.0128297 0
0.241181 0.00391267 0
0.115533 -0.0102399 0
0.244419 0.00634653 0
0.239308 0.012002 0
0.197507 -0.00757522 0
0.228772 0.0023723 0
0.243069 0.00736223 0
0.217765 0.000104023 0
0.241507 0.00883606 0
0.211312 -0.00236759 0
0.2393 0.0109179 0
0.211589 -0.00253084 0
0.212027 -0.00276878 0
0.21944 -0.0004146 0
0.245162 0.00266586 0
0.241422 0.00722346 0
0.244896 0.00325175 0
0.239281 0.00948699 0
0.202183 -0.00746454 0
0.212681 -0.00311996 0
0.243082 0.00144416 0
0.243962 0.00311888 0
0.221813 -0.00118876 0
0.239243 0.0076003 0
0.241292 0.00514437 0
0.213666 -0.00363401 0
0.23596 -0.000592346 0
0.197872 -0.00994591 0
0.191652 -0.0112151 0
0.2065 -0.00751348 0
0.24253 0.00217958 0
0.224299 -0.00205204 0
0.185932 -0.0124842 0
0.236809 0.00815637 0
0.215172 -0.00438443 0
0.24114 0.00311305 0
0.236811 0.00782337 0
0.239169 0.00513449 0
0.243576 -0.00102424 0
0.236813 0.00749342 0
0.243431 1.57181e-05 0
0.236813 0.0070708 0
0.236814 0.00665187 0
0.236812 0.00610465 0
0.211745 -0.00686953 0
0.22755 -0.00336609 0
0.211881 -0.00695574 0
0.212017 -0.00704248 0
0.23681 0.00556228 0
0.212209 -0.00717249 0
0.21741 -0.00551144 0
0.240911 0.000550267 0
0.2124 -0.00730359 0
0.236805 0.00484683 0
0.212674 -0.0074961 0
0.239028 0.00196402 0
0.236798 0.00413835 0
0.212945 -0.00769108 0
0.213326 -0.00797316 0
0.198096 -0.012459 0
0.230668 -0.00486166 0
0.236784 0.00320207 0
0.242971 -0.00417257 0
0.242668 -0.00372387 0
0.213705 -0.00825963 0
0.240645 -0.00194121 0
0.236767 0.00227675 0
0.240617 -0.00523292 0
0.209279 -0.0102255 0
0.214236 -0.00866845 0
0.241618 -0.0040033 0
0.220715 -0.00723026 0
0.236739 0.00105978 0
0.206855 -0.0116374 0
0.214765 -0.00908817 0
0.186207 -0.0151671 0
0.238769 -0.00202898 0
0.115775 -0.0116127 0
0.236703 -0.000139672 0
0.234065 -0.00702168 0
0.202697 -0.0133057 0
0.215535 -0.00966935 0
0.240253 -0.00501199 0
0.233794 0.00191815 0
0.241807 -0.00729905 0
0.236645 -0.00170005 0
0.233796 0.00121198 0
0.216319 -0.0102682 0
0.198148 -0.0149763 0
0.233795 0.000337168 0
0.211937 -0.0120828 0
0.212162 -0.0122645 0
0.236576 -0.00323368 0
0.236547 -0.0093474 0
0.225429 -0.00988723 0
0.23379 -0.000772088 0
0.212496 -0.0125354 0
0.21745 -0.0110889 0
0.239801 -0.0079818 0
0.212977 -0.0129351 0
0.191983 -0.0165803 0
0.238309 -0.00694024 0
0.233776 -0.00219809 0
0.236467 -0.00519868 0
0.2186 -0.0119477 0
0.213651 -0.0135187 0
0.153253 -0.0164772 0
0.24035 -0.0114636 0
0.206818 -0.0157379 0
0.233744 -0.00403944 0
0.240128 -0.0111588 0
0.18624 -0.0178818 0
0.236337 -0.00712349 0
0.238238 -0.0124085 0
0.214563 -0.0143661 0
0.220198 -0.0131497 0
0.198025 -0.0176629 0
0.239152 -0.0115562 0
0.233677 -0.00640834 0
0 0 0
0.236139 -0.00954635 0
0.231172 -0.0139426 0
0.230569 -0.00424117 0
0.215769 -0.0155902 0
0.221831 -0.0144398 0
0.230571 -0.00461918 0
0.230572 -0.00499447 0
0.0623963 -0.00704771 0
0.211602 -0.0172274 0
0.230573 -0.00545303 0
0.237518 -0.0128237 0
0.211713 -0.0173226 0
0.211823 -0.0174182 0
0.230573 -0.00590815 0
0.23851 -0.0154215 0
0.211979 -0.01756 0
0.233549 -0.00942585 0
0.235906 -0.0119101 0
0.230573 -0.00647851 0
0.212134 -0.0177026 0
0.2384 -0.0149872 0
0.212353 -0.0179112 0
0.23057 -0.00704424 0
0.212571 -0.0181217 0
0.223993 -0.0162715 0
0.230566 -0.00776585 0
0.217384 -0.0173446 0
0.212874 -0.0184253 0
0.202309 -0.0198965 0
0.115597 -0.0131631 0
0.230558 -0.00848099 0
0.197724 -0.0203504 0
0.213173 -0.018733 0
0.186004 -0.0206115 0
0.230545 -0.00940158 0
0.213583 -0.0191705 0
0.235561 -0.0148257 0
0.206385 -0.0204178 0
0.208841 -0.0201403 0
0.230528 -0.0103129 0
0.21398 -0.0196154 0
0.233314 -0.0132119 0
0.226229 -0.018276 0
0.2305 -0.0114878 0
0.237607 -0.0191731 0
0.214514 -0.0202371 0
0.237343 -0.0190347 0
0.191465 -0.0220377 0
0.219458 -0.0198865 0
0.235162 -0.0197777 0
0.230465 -0.012649 0
0.215029 -0.0208715 0
0.23516 -0.0176591 0
0.236203 -0.0196838 0
0.230409 -0.014139 0
0.215704 -0.0217475 0
0.2287 -0.0210627 0
0.197213 -0.0232296 0
0.22661 -0.0114145 0
0.232895 -0.017871 0
0.210733 -0.0230131 0
0.230341 -0.0156084 0
0.226611 -0.012236 0
0.210911 -0.0232069 0
0.216353 -0.0226478 0
0.211175 -0.0234958 0
0.185534 -0.0233654 0
0.226609 -0.0132071 0
0.234582 -0.0210774 0
0.236154 -0.022915 0
0.211552 -0.0239208 0
0.230236 -0.0174749 0
0.2266 -0.0143871 0
0.217175 -0.023878 0
0.222074 -0.0236068 0
0.212075 -0.0245382 0
0.205504 -0.0250649 0
0.230659 -0.0240498 0
0.226579 -0.0158504 0
0.230111 -0.0193107 0
0.212784 -0.025425 0
0.217942 -0.0251528 0
0.233918 -0.0243865 0
0.226539 -0.0176878 0
0.196518 -0.0261052 0
0.232178 -0.0234782 0
0.229922 -0.0216096 0
0.21371 -0.0266864 0
0.115 -0.0146252 0
0.15208 -0.02115 0
0.234291 -0.0273563 0
0.218829 -0.0268791 0
0.20076 -0.027269 0
0.226463 -0.0200044 0
0.234111 -0.0274778 0
0.23195 -0.0278672 0
0.184815 -0.0261344 0
0.229701 -0.0238635 0
0.214863 -0.028467 0
0.232991 -0.0282938 0
0.209333 -0.0286861 0
0.222274 -0.0185868 0
0.209416 -0.0287858 0
0.209499 -0.0288858 0
0.219612 -0.028674 0
0.190124 -0.0275862 0
0.222276 -0.0190366 0
0.225461 -0.0289213 0
0.209618 -0.0290336 0
0.226325 -0.0229159 0
0.209737 -0.0291821 0
0.222276 -0.0194842 0
0.209907 -0.0293984 0
0.222276 -0.0200052 0
0.210075 -0.0296162 0
0.229376 -0.0266384 0
0.222275 -0.0205235 0
0.210311 -0.029929 0
0.222272 -0.0211435 0
0.210544 -0.0302448 0
0.19556 -0.0291907 0
0.222267 -0.0217601 0
0.204056 -0.0302623 0
0.231957 -0.0315978 0
0.210863 -0.0306921 0
0.23099 -0.0300632 0
0.222258 -0.0225146 0
0.216202 -0.0309694 0
0.211176 -0.0311454 0
0.220595 -0.0310689 0
0.226081 -0.0265409 0
0.222246 -0.0232644 0
0.229 -0.0293488 0
0.231927 -0.0320549 0
0.206178 -0.0311848 0
0 0 0
0.211592 -0.0317787 0
0.222227 -0.0241969 0
0.183878 -0.0289195 0
0.211995 -0.0324238 0
0.222204 -0.0251226 0
0.222168 -0.0262843 0
0.212513 -0.0333138 0
0.221563 -0.0335958 0
0.228464 -0.0326218 0
0.222125 -0.0274358 0
0.225663 -0.0309893 0
0.213002 -0.0342254 0
0.217595 -0.0344625 0
0.230791 -0.0361218 0
0.19442 -0.0322665 0
0.222059 -0.0288835 0
0.230505 -0.0364223 0
0.228127 -0.0361103 0
0.113927 -0.016305 0
0.213607 -0.0354667 0
0.207203 -0.0349506 0
0.221981 -0.030316 0
0.20735 -0.0351531 0
0.22785 -0.035808 0
0.207564 -0.0354543 0
0.216931 -0.0268892 0
0.22272 -0.0369348 0
0.229109 -0.0376115 0
0.207866 -0.0358957 0
0.214156 -0.0367457 0
0.221866 -0.0321091 0
0.216932 -0.0278905 0
0.202133 -0.0353977 0
0.182718 -0.0317092 0
0.208284 -0.0365341 0
0.216926 -0.0290232 0
0.188006 -0.0332078 0
0.224966 -0.0363477 0
0.197773 -0.0354091 0
0.221731 -0.0338796 0
0.208844 -0.0374467 0
0.214788 -0.038466 0
0.216911 -0.0303394 0
0.228937 -0.0406107 0
0.218761 -0.0393023 0
0.227001 -0.0395737 0
0.216881 -0.0319055 0
0.209561 -0.0387373 0
0.192958 -0.035561 0
0.223677 -0.0405313 0
0.221535 -0.0360747 0
0.215316 -0.0402492 0
0.149575 -0.0260537 0
0.216827 -0.0338025 0
0.221308 -0.0382363 0
0.210434 -0.0405448 0
0.0606697 -0.00822804 0
0.226044 -0.0432266 0
0.216732 -0.0361261 0
0.181358 -0.0345039 0
0.215834 -0.0425936 0
0.223844 -0.0426643 0
0.220984 -0.0408801 0
0.226559 -0.0452556 0
0.204525 -0.0410659 0
0.20459 -0.0411691 0
0.204655 -0.0412725 0
0.204751 -0.0414254 0
0.224002 -0.0451354 0
0.204846 -0.0415789 0
0.211414 -0.0430527 0
0.226246 -0.0460143 0
0.204984 -0.0418024 0
0.216572 -0.0389831 0
0.20512 -0.0420271 0
0.205311 -0.0423493 0
0.199514 -0.0410027 0
0.19132 -0.0388328 0
0.211146 -0.0353259 0
0.216189 -0.0450094 0
0.205498 -0.042674 0
0.112416 -0.0177876 0
0.220614 -0.0434751 0
0.211147 -0.0358838 0
0.219483 -0.0459498 0
0.205754 -0.0431328 0
0.211146 -0.0364401 0
0.224746 -0.0474468 0
0.206002 -0.0435964 0
0.211143 -0.037059 0
0.211138 -0.037676 0
0.206332 -0.0442415 0
0.216306 -0.0424858 0
0.21113 -0.0383802 0
0.200984 -0.0431169 0
0.206648 -0.0448955 0
0.21112 -0.0390818 0
0.212373 -0.046494 0
0.220098 -0.0465967 0
0.185143 -0.0388781 0
0.211104 -0.0399021 0
0.179811 -0.037287 0
0.223483 -0.0497677 0
0.216419 -0.0481203 0
0.207052 -0.0457922 0
0.211084 -0.0407189 0
0.222097 -0.0499296 0
0.20743 -0.0467044 0
0.211056 -0.0416933 0
0.223274 -0.0515256 0
0 0 0
0.211022 -0.0426628 0
0.215872 -0.0467417 0
0.219513 -0.0496489 0
0.207891 -0.0479366 0
0.210974 -0.0438365 0
0.189308 -0.042316 0
0.216422 -0.0513087 0
0.210918 -0.0450031 0
0.208305 -0.0491943 0
0.193134 -0.0442045 0
0.213104 -0.0511373 0
0.210838 -0.0464272 0
0.201014 -0.0476319 0
0.201138 -0.0478386 0
0.201316 -0.0481454 0
0.19643 -0.0464845 0
0.218717 -0.0532503 0
0.208769 -0.0508669 0
0.221847 -0.0552888 0
0.201566 -0.0485939 0
0.210746 -0.0478405 0
0.21938 -0.0547021 0
0.178081 -0.0400547 0
0.215181 -0.0518403 0