# vtk DataFile Version 3.0
File generated from DClib
ASCII

DATASET UNSTRUCTURED_GRID
POINTS 922 float
50 0 0 
50 1.66667 0 
47.9167 0 0 
50 3.33333 0 
45.8333 0 0 
50 5 0 
43.75 0 0 
50 6.66667 0 
43 2 0 
41.6667 0 0 
50 8.33333 0 
43 4.66667 0 
50 10 0 
43 7.33333 0 
39.7917 2 0 
39.5833 0 0 
43 10 0 
37.5 0 0 
36.5833 2 0 
36 4 0 
35.4167 0 0 
36 5 0 
36 6 0 
34.875 4 0 
36 7 0 
36 8 0 
36 9 0 
33.3333 0 0 
33.75 4 0 
33.375 2 0 
36 10 0 
32.625 4 0 
33 6 0 
33 7.38776 0 
31.25 0 0 
31.5 4 0 
33 8.72989 0 
31.25 6 0 
33 10 0 
30.1667 2 0 
30.375 4 0 
29.1667 0 0 
29.25 4 0 
29.5 6 0 
30 8 0 
30 8.38776 0 
30 8.77551 0 
30 9.11765 0 
29.375 8 0 
30 9.45978 0 
28.125 4 0 
30 9.72989 0 
29.5436 8.77551 0 
29.7872 9.45978 0 
30 10 0 
29.9616 10.0384 0 
29.9232 10.0768 0 
29.8781 10 0 
29.7038 9.72989 0 
29.5732 9.45978 0 
29.8635 10.1365 0 
29.8013 10.0768 0 
29.7562 10 0 
29.3407 9.11765 0 
29.8038 10.1962 0 
29.7179 10.0384 0 
29.0879 8.77551 0 
29.6796 10.0768 0 
28.75 8 0 
29.5896 10 0 
29.682 10.1962 0 
29.3212 9.45978 0 
29.7137 10.2863 0 
28.8513 8.38776 0 
29.62 10.1365 0 
29.5133 10.0768 0 
29.5605 10.1962 0 
29.318 9.72989 0 
29.6237 10.3763 0 
29.423 10 0 
27.0833 0 0 
29.3851 10.0384 0 
29.4708 10.2863 0 
29.0681 9.45978 0 
29.5022 10.3763 0 
29.3471 10.0768 0 
29.3947 10.1962 0 
29.4922 10.5078 0 
27.75 6 0 
29.2882 10.1365 0 
29.2009 10 0 
29.3811 10.3763 0 
28.6181 8.77551 0 
26.9583 2 0 
29.2293 10.1962 0 
29.1257 10.0768 0 
29.3606 10.6394 0 
29.2162 10.3763 0 
28.6273 9.11765 0 
28.7679 9.45978 0 
29.1405 10.2863 0 
29.25 10.5078 0 
28.9787 10 0 
28.125 8 0 
28.8217 9.72989 0 
29.2395 10.6394 0 
28.9416 10.0384 0 
29.009 10.1962 0 
27 4 0 
29.0518 10.3763 0 
28.9045 10.0768 0 
29.119 10.6394 0 
28.8468 10.1365 0 
29.1744 10.8256 0 
28.4666 9.45978 0 
28.7892 10.1962 0 
28.69 10 0 
28.1489 8.77551 0 
28.9223 10.5078 0 
28.8333 10.3763 0 
28.9555 10.6394 0 
28.617 10.0768 0 
28.7024 10.2863 0 
28.9337 10.8256 0 
28.9882 11.0118 0 
28.7928 10.6394 0 
28.6156 10.3763 0 
28.5038 10.1962 0 
28.4012 10 0 
27.6992 8.38776 0 
28.8679 11.0118 0 
28.1088 9.45978 0 
28.3655 10.0384 0 
28.1935 9.72989 0 
27.5 8 0 
28.3298 10.0768 0 
28.5771 10.6394 0 
28.7485 11.0118 0 
28.489 10.5078 0 
27.8468 9.11765 0 
28.6098 10.8256 0 
28.2744 10.1365 0 
27.6621 8.77551 0 
28.3334 10.3763 0 
28.219 10.1962 0 
28.7333 11.2667 0 
28.5871 11.0118 0 
28.3626 10.6394 0 
28.0354 10 0 
28.1356 10.2863 0 
27.75 9.45978 0 
28.427 11.0118 0 
27.9662 10.0768 0 
28.0523 10.3763 0 
28.4949 11.2667 0 
28.184 10.8256 0 
28.0852 10.6394 0 
27.8587 10.1962 0 
28.2155 11.0118 0 
28.4783 11.5217 0 
27.9307 10.5078 0 
27.1759 8.77551 0 
25.875 4 0 
27.6697 10 0 
26.875 8 0 
27.6363 10.0384 0 
28.3594 11.5217 0 
27.6029 10.0768 0 
28.177 11.2667 0 
27.3262 9.45978 0 
27.4134 9.72989 0 
28.0057 11.0118 0 
27.6971 10.3763 0 
27.8094 10.6394 0 
28.2416 11.5217 0 
27.551 10.1365 0 
27.4992 10.1962 0 
26 6 0 
26.9863 9.11765 0 
28.0837 11.5217 0 
27.4211 10.2863 0 
27.7352 11.0118 0 
27.638 10.8256 0 
28.141 11.859 0 
27.2186 10 0 
27.9274 11.5217 0 
26.5417 8.38776 0 
27.3432 10.3763 0 
27.4616 10.6394 0 
26.6684 8.77551 0 
27.7621 11.2667 0 
26.9013 9.45978 0 
27.155 10.0768 0 
25 0 0 
26.25 8 0 
27.9066 11.859 0 
27.2294 10.5078 0 
27.467 11.0118 0 
27.7222 11.5217 0 
27.0563 10.1962 0 
27.1158 10.6394 0 
27.5191 11.5217 0 
26.7674 10 0 
26.9078 10.3763 0 
27.8036 12.1964 0 
26.7374 10.0384 0 
27.5976 11.859 0 
26.7074 10.0768 0 
27.1297 11.0118 0 
27.2334 11.2667 0 
26.1616 8.77551 0 
26.4044 9.45978 0 
27.6871 12.1964 0 
26.6608 10.1365 0 
26.9553 10.8256 0 
26.4658 9.72989 0 
27.2584 11.5217 0 
26.6142 10.1962 0 
27.5718 12.1964 0 
24.75 4 0 
26.544 10.2863 0 
26.6911 10.6394 0 
26.0333 9.11765 0 
25.625 8 0 
27.4193 12.1964 0 
26.7951 11.0118 0 
27.1983 11.859 0 
26.4737 10.3763 0 
27.0006 11.5217 0 
26.2261 10 0 
27.2684 12.1964 0 
26.3711 10.5078 0 
26.1706 10.0768 0 
25.9068 9.45978 0 
25.6301 8.77551 0 
27.3729 12.6271 0 
27.0723 12.1964 0 
26.5764 11.2667 0 
26.0842 10.1962 0 
26.2685 10.6394 0 
25.377 8.38776 0 
26.6777 11.5217 0 
26.3853 11.0118 0 
27.1446 12.6271 0 
26.8784 12.1964 0 
26.6935 11.859 0 
25.9539 10.3763 0 
26.1234 10.8256 0 
25 8 0 
25.6847 10 0 
26.3582 11.5217 0 
23.75 2 0 
25.6594 10.0384 0 
26.6314 12.1964 0 
25.634 10.0768 0 
26.8487 12.6271 0 
25.0992 8.77551 0 
25.3333 9.45978 0 
25.9784 11.0118 0 
25.5945 10.1365 0 
24.25 6 0 
25.7632 10.6394 0 
25.5549 10.1962 0 
26.9422 13.0578 0 
25.3422 9.72989 0 
25.4952 10.2863 0 
26.3874 12.1964 0 
26.8294 13.0578 0 
24.9782 9.11765 0 
25.968 11.5217 0 
25.4353 10.3763 0 
23.625 4 0 
26.7177 13.0578 0 
26.4709 12.6271 0 
26.0703 11.859 0 
25.7799 11.2667 0 
25.3477 10.5078 0 
26.5729 13.0578 0 
24.375 8 0 
26.0835 12.1964 0 
25.4927 11.0118 0 
25.0532 10 0 
24.5409 8.77551 0 
25.2597 10.6394 0 
26.4296 13.0578 0 
25.0081 10.0768 0 
24.7595 9.45978 0 
25.5816 11.5217 0 
24.9377 10.1962 0 
22.9167 0 0 
26.246 13.0578 0 
25.7833 12.1964 0 
25.1349 10.8256 0 
25.9977 12.6271 0 
24.2034 8.38776 0 
26.412 13.588 0 
24.831 10.3763 0 
26.0644 13.0578 0 
25.0097 11.0118 0 
25.3193 11.859 0 
26.1925 13.588 0 
25.1215 11.5217 0 
25.4183 12.1964 0 
23.75 8 0 
23.983 8.77551 0 
24.4216 10 0 
25.8356 13.0578 0 
24.6735 10.6394 0 
24.402 10.0384 0 
24.3824 10.0768 0 
24.1101 9.45978 0 
24.8375 11.2667 0 
24.3517 10.1365 0 
24.3209 10.1962 0 
25.4179 12.6271 0 
25.9145 13.588 0 
25.6093 13.0578 0 
24.2742 10.2863 0 
24.0443 9.72989 0 
23.8155 9.11765 0 
25.0573 12.1964 0 
24.2272 10.3763 0 
22.5 4 0 
24.4478 11.0118 0 
24.6646 11.5217 0 
24.158 10.5078 0 
25.3298 13.0578 0 
25.8819 14.1181 0 
25.5653 13.588 0 
24.0881 10.6394 0 
23.3961 8.77551 0 
25.7745 14.1181 0 
23.125 8 0 
23.7058 10 0 
25.6676 14.1181 0 
22.5 6 0 
24.6289 12.1964 0 
25.0535 13.0578 0 
23.9883 10.8256 0 
23.461 9.45978 0 
24.4349 11.859 0 
23.6731 10.0768 0 
25.5335 14.1181 0 
23.019 8.38776 0 
24.7229 12.6271 0 
23.6216 10.1962 0 
24.1341 11.5217 0 
25.1327 13.588 0 
23.8872 11.0118 0 
25.4 14.1181 0 
23.5426 10.3763 0 
24.7194 13.0578 0 
25.233 14.1181 0 
24.204 12.1964 0 
23.7472 11.2667 0 
22.8093 8.77551 0 
23.4243 10.6394 0 
22.5 8 0 
25.0671 14.1181 0 
24.3887 13.0578 0 
23.6052 11.5217 0 
24.6061 13.588 0 
22.9901 10 0 
25.2539 14.7461 0 
22.9769 10.0384 0 
24.8614 14.1181 0 
22.7421 9.45978 0 
22.9637 10.0768 0 
22.9429 10.1365 0 
21.375 4 0 
23.2515 11.0118 0 
22.5457 9.11765 0 
22.922 10.1962 0 
23.7117 12.1964 0 
25.046 14.7461 0 
23.9078 12.6271 0 
22.8899 10.2863 0 
24.6571 14.1181 0 
22.8574 10.3763 0 
22.5862 9.72989 0 
23.998 13.0578 0 
23.4145 11.859 0 
22.8089 10.5078 0 
22.1933 8.77551 0 
20.8333 0 0 
24.791 14.7461 0 
24.4076 14.1181 0 
21.875 8 0 
22.7595 10.6394 0 
23.0055 11.5217 0 
23.9777 13.588 0 
22.6878 10.8256 0 
21.822 8.38776 0 
23.2211 12.1964 0 
23.6104 13.0578 0 
24.1597 14.1181 0 
24.4776 14.7461 0 
22.6143 11.0118 0 
20.5417 2 0 
22.0242 9.45978 0 
22.2027 10 0 
22.1829 10.0768 0 
22.1513 10.1962 0 
24.6259 15.3741 0 
23.8624 14.1181 0 
22.5107 11.2667 0 
21.5771 8.77551 0 
24.5253 15.3741 0 
22.1017 10.3763 0 
24.0946 14.7461 0 
22.9704 12.6271 0 
24.4245 15.3741 0 
21.25 8 0 
23.1626 13.0578 0 
20.75 6 0 
22.404 11.5217 0 
22.0253 10.6394 0 
22.6655 12.1964 0 
24.3035 15.3741 0 
23.5669 14.1181 0 
23.2428 13.588 0 
20.25 4 0 
24.1821 15.3741 0 
22.2583 11.859 0 
21.9095 11.0118 0 
24.0354 15.3741 0 
23.6316 14.7461 0 
21.1769 9.11765 0 
22.7163 13.0578 0 
21.2482 9.45978 0 
23.2196 14.1181 0 
21.4154 10 0 
23.8883 15.3741 0 
21.4085 10.0384 0 
21.4016 10.0768 0 
21.3905 10.1365 0 
20.9332 8.77551 0 
21.3792 10.1962 0 
21.3616 10.2863 0 
22.108 12.1964 0 
20.625 8 0 
23.7106 15.3741 0 
21.3434 10.3763 0 
21.7377 11.5217 0 
21.3158 10.5078 0 
20.6106 8.38776 0 
22.874 14.1181 0 
20.9961 9.72989 0 
23.5323 15.3741 0 
21.2869 10.6394 0 
23.9109 16.0891 0 
23.0804 14.7461 0 
22.2122 13.0578 0 
21.2441 10.8256 0 
22.3997 13.588 0 
23.3184 15.3741 0 
21.91 12.6271 0 
23.7168 16.0891 0 
21.1989 11.0118 0 
22.4765 14.1181 0 
23.1037 15.3741 0 
20.2886 8.77551 0 
21.1336 11.2667 0 
20.4742 9.45978 0 
21.4902 12.1964 0 
23.4886 16.0891 0 
20 8 0 
20.5755 10 0 
20.5672 10.0768 0 
19.125 4 0 
21.0644 11.5217 0 
21.7064 13.0578 0 
20.5533 10.1962 0 
22.8492 15.3741 0 
20.5305 10.3763 0 
23.217 16.0891 0 
18.75 0 0 
22.4362 14.7461 0 
22.0799 14.1181 0 
20.9674 11.859 0 
20.493 10.6394 0 
22.5939 15.3741 0 
22.8917 16.0891 0 
20.4322 11.0118 0 
19 6 0 
20.8648 12.1964 0 
19.7252 9.11765 0 
21.4494 13.588 0 
19.6198 8.77551 0 
23.1959 16.8041 0 
19.375 8 0 
21.1471 13.0578 0 
22.2963 15.3741 0 
21.634 14.1181 0 
23.1028 16.8041 0 
19.3826 8.38776 0 
19.6592 9.45978 0 
23.0087 16.8041 0 
20.3354 11.5217 0 
22.5023 16.0891 0 
19.7357 10 0 
20.7266 12.6271 0 
22.9022 16.8041 0 
19.7337 10.0384 0 
19.7316 10.0768 0 
21.6986 14.7461 0 
19.7282 10.1365 0 
21.9981 15.3741 0 
19.7246 10.1962 0 
22.7943 16.8041 0 
19.7187 10.2863 0 
19.7123 10.3763 0 
19.7021 10.5078 0 
22.6703 16.8041 0 
21.1873 14.1181 0 
19.691 10.6394 0 
20.5814 13.0578 0 
22.5445 16.8041 0 
19.315 9.72989 0 
19.6735 10.8256 0 
20.1866 12.1964 0 
21.6575 15.3741 0 
18 4 0 
18.75 8 0 
22.04 16.0891 0 
18.9498 8.77551 0 
19.6542 11.0118 0 
22.3982 16.8041 0 
19.6249 11.2667 0 
22.2495 16.8041 0 
19.5925 11.5217 0 
20.6965 14.1181 0 
21.3165 15.3741 0 
18.8474 9.45978 0 
20.395 13.588 0 
22.076 16.8041 0 
20.8727 14.7461 0 
19.5453 11.859 0 
18.8678 10 0 
22.415 17.585 0 
18.8667 10.0768 0 
17.3333 2 0 
21.4999 16.0891 0 
21.8995 16.8041 0 
19.969 13.0578 0 
18.8645 10.1962 0 
18.8602 10.3763 0 
19.4934 12.1964 0 
18.125 8 0 
22.2346 17.585 0 
20.9365 15.3741 0 
18.8517 10.6394 0 
21.6943 16.8041 0 
18.261 8.77551 0 
18.1362 8.38776 0 
20.2023 14.1181 0 
22.0344 17.585 0 
18.8358 11.0118 0 
18.2149 9.11765 0 
19.4214 12.6271 0 
21.4858 16.8041 0 
20.5569 15.3741 0 
21.8073 17.585 0 
18.807 11.5217 0 
20.8831 16.0891 0 
17.25 6 0 
21.246 16.8041 0 
19.3437 13.0578 0 
16.6667 0 0 
18.0163 9.45978 0 
16.875 4 0 
[...]
POINT_DATA 922
SCALARS phi float 1
LOOKUP_TABLE default
-424594
-5710.14
-250310
-7413.89
-143539
-7523.14
-99764.6
-9063.26
-455871
-48427.2
-139538
-8740.55
-524232
-4829.83
-186303
-23314.1
-375741
-6932.46
-108721
-518549
569.064
651.061
-452.7
-357327
-539.587
-678.125
-81643.5
1143.26
-249442
-63028.5
-289775
-270134
-2825.33
-4843.1
281.934
-201216
-31464.5
-17341.9
-198240
-41424.3
-224585
-28.1704
-175863
-21846.1
-1509.08
-2596.65
-6415.24
-200.708
-9483.36
169.611
-205419
-1300.2
-21716
-19452.8
-6613.28
-662.91
-1999.9
-32751.2
-25045.1
-10968.7
-3641.59
-2551.27
-77740.9
-21088.7
-2871.21
129.932
-24832.3
-551.511
-12795.4
-46277.6
-3644.69
-10138.4
-7613.25
-39694.3
-2044.91
-608.62
-2080.42
-16329.9
-7397.83
-32606.8
-561.599
0.164255
-4482.79
-12905.3
-6920.5
-94.5225
-1631.58
-13600.3
-31082.1
-410.689
-24045.2
-2976.97
-25114.5
-38456.7
-550.67
-188.035
-9197.75
-2552.65
-24250.4
-12806.3
-1583.21
-5841.34
-22375.7
-17580.1
-18019.3
-7868.01
-113.487
-583.153
-170657
-1426.54
-84.8583
-4213.14
-266.352
-13365.1
-17665.8
-274.716
-20705.7
-27627.4
-2847.9
-1494.83
-3456.31
-164.167
-832.441
-6944.05
-8236.65
-2124.3
-857.027
-412.466
-29424
-42790.6
-7521.46
-17691.8
-194.623
-25872.2
-21262.6
-192.349
-2487.66
-4994.34
-1991.71
-29528.7
-4285.17
-403.945
-27542.5
-1076.75
-384.296
-11519.8
-4995.22
-1823.18
-29496.7
-862.716
-24415
-3635.53
-192.003
-823.338
-8176.81
-3560.89
-2360.02
-443.77
-3973
-8034.84
-1859.17
-30013
-202623
-44538.5
-23791.7
-136.491
-8696.69
-132.899
-6661.17
-24136.2
-37929.5
-3009.01
-1012.5
-1802.42
-6545.21
-327.321
-322.495
-39369.2
-34716.4
-7517.75
-771.707
-4165.54
-3665.11
-12329.5
-44495
-5932.55
-42534.9
-763.9
-2230.67
-28785.6
-6115.46
-32262
-124.851
-6748.7
-26093.3
-11180.2
-1717.04
-3424.78
-7136.91
-336.066
-1686.63
-5776.08
-64205.2
-830.96
-10135.2
-66.5891
-10804.4
-65.0508
-4407.44
-6354.11
-30278.5
-30915.2
-12308.1
-208.64
-3538.96
-51177.6
-7192.52
-201.351
-10032.1
-172348
-549.259
-1900
-38391.7
-27454.2
-12536.7
-3453.05
-10856.1
-534.83
-5722.04
-62023.4
-10340.2
-1309.2
-48.0864
-39001.8
-27916.4
-17537.2
-12974.3
-6564.5
-184.221
-1280.57
-38689
-7719.12
-3986.77
-18007.1
-10541.1
-10884.9
-543.089
-2850.21
-28080.8
-81365.9
-6261.34
-57759.7
-3.7964
-13140
-3.16817
-18409.6
-28249.2
-35992.2
-2773.24
-71.0568
-41282.3
-1372.09
-66.3562
-17240.2
-60736.3
-282.698
-10491.8
-21798.5
-39410.1
-7455.28
-271.531
-198109
-17986
-18529.3
-10937.7
-5584.53
-816.668
-22569.8
-28260.6
-13053.2
-3062.46
-74908.5
-25156.3
-792.517
-18400
3.9804
-42073.6
-5334.2
-42.0812
-43583
-22885.5
-10177.7
-1975.07
-18295.5
-32496.8
-29641.9
-239.312
-18432.4
-1915.17
-9761.81
-30532.7
-6029.42
-12363.5
-26750
-24395.5
-87691.2
-22640.6
-781.365
-13.6126
-14.1309
-37327.6
-4159.02
5.64762
6.05043
-17467.1
-30743.8
-17898.8
-62.358
-62026.5
-37056.3
-9168.95
-58.0328
-161910
-1996.26
-3983.79
-349.288
-21630.2
-31262.1
-30175.6
-337.418
-21071.4
-39016.3
-24946.6
-76754.8
-31739.8
-30529.1
-10537.5
-16554.8
-1096.3
-39839.3
-7698.97
-39.021
-39103
-25302.5
-15526.3
4.73945
-4295.21
-28669.2
-1066.79
-31369.2
-33.0886
-19558.7
-38089.1
-7252.86
-2655.35
-19475
-296.24
-21380.6
-30026.8
-14394
-2566.27
-26040.1
-79538.3
-48538.1
-148.717
-35817.9
-33652.7
-149.014
-52.2368
-190525
-1043.88
-31159.8
-53.8821
-7965.67
-48595
-12555.9
7.59758
-27598.7
7.44768
-53248.5
-16455.8
-5358.71
-60.2661
-16208.1
-95200.2
-47258.7
-32312.5
-17253.7
-57.6566
-2635.62
-22341.7
-438.508
-17756.4
-5077.03
-11543.4
-24244.5
-44443.8
-429.725
-123757
-31988.8
-65233.6
-206.199
-89.3688
-50769.8
-27831.5
-1410.03
-13951.1
-62282.9
0.998385
-40176.4
-9171.02
-49928.6
-12705.9
-12718.5
-12985.1
-1373.29
-37.2399
-5343.21
-60125.1
-20235.9
-17901.9
-156588
-47278
-3266.83
-397.45
-55962.7
-34704.1
-22241.3
-8402.36
-25083.6
-22670
-58071.4
-43184.8
-385.675
-385.991
-234.025
-10949.9
-235.217
-80.402
-3108.81
-8505.27
-50104.6
-81.0465
-1362.27
10.69
-10544.4
-15864.3
-36190.5
-37793.1
10.828
-68706.8
-28421.6
-8908.32
-95.4136
-13219.5
-42892.9
-6006.18
-66947
-93.0974
-17243.1
-31501
-8317.92
-610.875
-20184.8
-3162.21
-63050.4
-4627.03
-43181.8
-449.31
-231246
-593.427
-5478.56
-277.895
-34873.2
-99.8768
-57076.4
-236721
-21844.9
-11495.7
-1759.77
10.2525
-24791.7
-49329.8
-89.78
-1930.41
-1664.23
-12108.3
-8859.93
-5866.3
-68637.9
-2039.82
-5595.61
-26682.1
-12036.3
-83325.1
-4668.06
-13952.6
-66180.7
-604.513
-40317.2
-30622.3
-3541.73
-78558.3
-622.68
-625.303
-15545.2
-436.475
-18208.3
-439.252
-60992.1
-225.42
-228.021
-42.6458
-70912.5
-7533.3
-44.5489
-3182.19
-53868
-17026.7
6.27742
-1694.41
-19011.4
-224155
-254.072
-30828.5
-3460.8
8.10931
-61059
-234.339
-45108.9
-215.391
-7550.27
-12335.1
-8382.75
-5337.29
-49506.6
-10045.7
-910.565
-19306.1
-78430.9
-668.58
-271072
-21762.9
-35253.2
-3183.46
-454.284
-220.055
-826.857
99.3613
-74592.8
-12393.6
-30.761
-37211.2
-1886.85
-989.224
-4371.58
-68321.7
-1.38481
-3747.3
-1983.81
-25293
-7531.87
-59623.7
-279.413
-13929.8
-595.805
-25488.9
-1705.05
-321690
-4457.58
-380721
-49034.7
-4199.89
-5750.95
-856.202
-16339
-10692.4
-678.952
-944.595
-682.67
-428.432
-7158.64
-433.773
-472.556
-171.472
-2958.65
-178.475
1.20232
-37422.8
-2.48056
-15570.2
-57.7735
-72623.5
-5075.19
-43.1058
-87569.1
-7860.49
-3.45853
-235.313
-524.758
-1794.11
-68884.3
-2254.67
-3954.6
-9249.9
-1203.1
-455.113
-80645.9
-25938.9
-2596.28
-2748.38
-61518.3
-1487.81
-1777.6
97.4269
-69872.8
-312.309
12.0141
-4652.33
-1270.6
-8221.36
-510.092
-51628.2
-7.40501
-1475.95
-2862.62
-3453.8
-3706.89
-56782.7
-15815.6
-2696.75
-5021.69
-6641.87
-2156.17
-40523.6
-393406
-8870.91
-3677.74
-4378.76
-287.342
-9670.19
-2150.16
-42722
-14688.1
-8443.86
-13.4568
-5880.27
-29084.6
-1651.65
-14266.8
-3348.37
-8021.96
-3442.86
-28930.6
-1544.7
-19710.8
-58964.5
-17653.2
-18404.1
84.7994
-6313.5
-2274.63
-9861.31
-9589.26
-2689.87
-52572.2
-1470.57
-22658.1
-16822.2
-1245.59
-285.661
-12568.4
-1211.64
-45937.9
-18970.4
-2970.63
-27.3387
-2409.15
-9622.11
-9388.96
-1067.44
-846.635
-18474.3
-38669.5
-22844.2
-7659.91
-583223
-401.16
-3601.25
-10960.1
-933.611
-30621.6
-5636.46
-3584.76
-18033
-643386
-22361
-133.872
-3830.94
-10384
-453.952
-22032
-2087.33
-11717.7
-20707
-264.795
-498.961
108.736
-17699.4
-14917.7
-13578.7
-23215.7
-489.172
-502767
-12102.9
-15671.6
-14689.7
-17213.2
-37271.9
98.0417
-65.112
-10796.1
139.118
-43024.3
-6345.6
101.347
-23123.3
-32353
-10735.4
-16960.1
-37200.7
-20882.5
139.396
-20319.3
-27827.9
-6858.24
-1519.8
-1502.04
-31418.6
-239.754
-23006.5
-25151.7
-6611.93
-739.229
-12389.4
-25197
-14184.4
-17807.5
-859.877
-3950.35
167.464
-20485.9
-18451.5
-3790.74
-16495.1
-642208
-24881.2
-12207.6
-3518.52
-2085.01
-23323.4
-11417.9
-13626.3
-1023.07
-6627.78
-4185.33
-1863.49
-4991.14
-17570.2
-6029.45
-2069.26
-1436.75
-694.005
-3759.26
-10549.6
107.42
-12315.9
-18357.2
-586.162
-78.4961
-9507.38
-1088.34
-7441.33
-18034.2
-294.222
-3616.82
-12951.4
-5309.96
-13831.8
-623169
-9683.17
-23.2218
-10331.9
-13054.4
-14625.5
12.0765
-7639.7
-19862.6
-9904.77
-13028.7
-986378
-9218.71
-175.935
-612.009
-6963.4
-9466.26
-24750.5
-18899.9
-1067.92
-7209.68
-10297.7
-1845.27
-43116.7
-6107.88
-20121.5
-8333.79
-2171.99
-2267.22
-3208.15
-1757.74
-7653.16
-5687.79
-942593
-3364.51
-14943
-1380.19
-791061
-10582.9
-4488.14
-1010.82
-6136.3
-4335.93
-11408.4
-991076
-5229.18
-671.704
-4725.89
-8193.99
-387.273
-1.36227e+06
-5644.98
-5309.38
-170.478
-34.8552
68.8926
-1.24195e+06
-11305.5
-11413.6
-10763.4
-9976.33
-2.81634
-9395.69
-954145
-8623.9
-8051.83
-7288.44
-310.106
-6755.74
-6039.64
-1.11056e+06
-5560.44
-862.855
-4929.55
-4545.05
-4090.05
-1921.26
-3738.92
-3383.47
-1966.3
-1199.25
-1.4147e+06
-654.362
-202.732
14.0621
75.6647
-77.9783
-515.373
-1293.65
-1.44953e+06
-2775.01
-1403.15
-1046.05
-1.29367e+06
-726.261
-453.076
-236.649
-84.2046
-21.9842
145.535
126.962
-1.86279e+06
-893.277
-3019.62
-6274.08
-12881.3
-1.67548e+06
-2086.69
-1851.39
-1641.39
-1460.33
-1276.63
-1112.38
-952.843
-804.851
-669.028
-537.366
-422.686
-303.497
-209.27
-87.0069
-11.0192
205.214
292.352
41.0841
-561.287
-1488.62
-2789.11
-4383.37
-6465.71
-8609.03
-12490
-17003.8
VECTORS Displacement float
0 0 0
0 0.00826564 0
0.0122793 0 0
0 0.0162832 0
0.024191 0 0
0 0.0240403 0
0.0354787 0 0
0 0.0317816 0
0.0382841 0.0090316 0
0.0462825 0 0
0 0.0411586 0
0.0358921 0.0211882 0
0 0.0562834 0
0.0344765 0.0331678 0
0.0546758 0.00800448 0
0.0565221 0 0
0.0328593 0.0519188 0
0.0660711 0 0
0.0693964 0.00682765 0
0.0701731 0.0138545 0
0.0748807 0 0
0.0700275 0.0176817 0
0.0692927 0.0218739 0
0.0753496 0.0128471 0
0.0681655 0.0262153 0
0.0670557 0.0305322 0
0.0658062 0.0364806 0
0.0826725 0 0
0.0800486 0.0117775 0
0.0820568 0.00530509 0
0.0640568 0.0454875 0
0.0844392 0.0105183 0
0.082898 0.017866 0
0.0819083 0.0233375 0
0.0893715 0 0
0.0884134 0.00911955 0
0.0805424 0.0300188 0
0.0896825 0.0139843 0
0.0779818 0.0430516 0
0.0919285 0.00327552 0
0.0919451 0.00755331 0
0.0945644 0 0
0.0949739 0.00579177 0
0.0946145 0.009921 0
0.093539 0.0159568 0
0.0937093 0.0170254 0
0.0940761 0.0181389 0
0.0944808 0.0196811 0
0.0953205 0.013677 0
0.0948862 0.0225074 0
0.0974372 0.00384552 0
0.0952749 0.0257097 0
0.0954995 0.0162502 0
0.0956954 0.020197 0
0.0952468 0.0298388 0
0.104757 0.0347838 0
0.108609 0.0358934 0
0.0959608 0.0277699 0
0.0963528 0.0212633 0
0.0962647 0.0183775 0
0.108753 0.0344751 0
0.106056 0.0318232 0
0.0966576 0.0255975 0
0.0965872 0.016301 0
0.107998 0.0329501 0
0.101021 0.0275271 0
0.0967797 0.0143329 0
0.103791 0.0281412 0
0.0968119 0.0113421 0
0.0972401 0.0224832 0
0.107215 0.029708 0
0.0969367 0.0169865 0
0.107114 0.0309787 0
0.096945 0.0125082 0
0.105317 0.027518 0
0.101585 0.0238479 0
0.105953 0.0266077 0
0.0974016 0.017849 0
0.10626 0.0289859 0
0.0976386 0.0201373 0
0.0980707 0 0
0.0993161 0.0207455 0
0.105779 0.0249951 0
0.0975234 0.0156351 0
0.105593 0.0259295 0
0.100417 0.020915 0
0.104177 0.0231456 0
0.10518 0.0262225 0
0.0980869 0.00511353 0
0.101696 0.0208496 0
0.0980594 0.0180327 0
0.105151 0.0234921 0
0.0978808 0.012224 0
0.0980236 0.000565782 0
0.102637 0.0205615 0
0.0995588 0.0182388 0
0.10411 0.0238292 0
0.104469 0.0210101 0
0.098164 0.01282 0
0.0981337 0.0140813 0
0.103372 0.0198448 0
0.104268 0.0216204 0
0.0983875 0.0162415 0
0.0981707 0.00883243 0
0.0983664 0.0148057 0
0.103741 0.0216742 0
0.0988313 0.016244 0
0.101187 0.0179039 0
0.0992717 0.00165403 0
0.103619 0.0190152 0
0.0992798 0.0162195 0
0.10345 0.0199646 0
0.0998349 0.0160731 0
0.102969 0.0210805 0
0.0986652 0.0125031 0
0.100348 0.0158731 0
0.0988285 0.0144606 0
0.0987491 0.0100228 0
0.103399 0.0177531 0
0.102479 0.0168164 0
0.103141 0.018093 0
0.0991888 0.0142005 0
0.100988 0.0154688 0
0.102477 0.0179495 0
0.101806 0.0187465 0
0.102895 0.0165524 0
0.101471 0.0149701 0
0.0998242 0.0137312 0
0.0991926 0.0127259 0
0.0991511 0.0074767 0
0.101661 0.0173561 0
0.0991661 0.0105898 0
0.0992765 0.012552 0
0.0992634 0.0113003 0
0.099243 0.00616143 0
0.0993585 0.0123731 0
0.102455 0.0147949 0
0.101545 0.0161647 0
0.101816 0.0141138 0
0.0993757 0.00887689 0
0.102078 0.0149822 0
0.0995146 0.0121028 0
0.0994215 0.00763969 0
0.100583 0.0128282 0
0.0996805 0.0118272 0
0.100527 0.0161786 0
0.101397 0.0147573 0
0.101847 0.0131861 0
0.0995555 0.0105918 0
0.0999168 0.0113859 0
0.099566 0.00861987 0
0.101269 0.0134944 0
0.0996526 0.0102192 0
0.100128 0.0109183 0
0.100336 0.0139847 0
0.101515 0.0118353 0
0.101078 0.0112248 0
0.0997896 0.00961163 0
0.1011 0.0119424 0
0.0992255 0.0138882 0
0.100328 0.0101684 0
0.0999034 0.00516077 0
0.100375 -0.000694707 0
0.0997997 0.00840477 0
0.100019 0.00333488 0
0.0998266 0.00821068 0
0.0991781 0.0128858 0
0.0998488 0.00801331 0
0.100155 0.0115473 0
0.0998991 0.00623384 0
0.0999067 0.00681338 0
0.100913 0.0104863 0
0.0999506 0.0086306 0
0.100445 0.00936739 0
0.0991393 0.0119594 0
0.0998769 0.00770255 0
0.0998977 0.00738458 0
0.099864 -0.000494415 0
0.100099 0.00424372 0
0.0990879 0.0107854 0
0.099915 0.00689054 0
0.10056 0.00867147 0
0.100375 0.00814934 0
0.0976237 0.0112026 0
0.0999563 0.00566329 0
0.0990274 0.00965684 0
0.100222 0.00183142 0
0.0999128 0.00637974 0
0.0999799 0.00704947 0
0.100204 0.002492 0
0.099918 0.00865384 0
0.100099 0.00378408 0
0.0999567 0.00526344 0
0.0994847 0 0
0.100443 0.000392221 0
0.0975741 0.00942042 0
0.099866 0.0056031 0
0.10009 0.00687022 0
0.098942 0.00821832 0
0.0999333 0.00461941 0
0.0997661 0.00479496 0
0.0988334 0.00680488 0
0.0999833 0.00287221 0
0.0998356 0.00359866 0
0.0959101 0.0086192 0
0.0999615 0.00266876 0
0.0974974 0.00718582 0
0.0999375 0.0024629 0
0.0995617 0.00459945 0
0.0993964 0.00506143 0
0.1003 -0.000240727 0
0.100147 0.00086447 0
0.0959138 0.00775645 0
0.0998981 0.00213875 0
0.0995264 0.00360277 0
0.100074 0.00111943 0
0.0986558 0.00499896 0
0.0998512 0.0018086 0
0.0959101 0.00690617 0
0.10071 -0.00327685 0
0.0997666 0.0012999 0
0.0995465 0.00200588 0
0.100213 -0.0011255 0
0.100536 -0.00264146 0
0.0958906 0.00578643 0
0.0991878 0.00236141 0
0.0973286 0.0043339 0
0.0996641 0.000778384 0
0.0984388 0.00321792 0
0.0998315 -0.000539242 0
0.0958574 0.00467803 0
0.0994817 -5.76557e-06 0
0.0997513 -0.000950752 0
0.100022 -0.00209622 0
0.100196 -0.00314846 0
0.0936556 0.00538403 0
0.0957939 0.00323612 0
0.0985375 0.000598628 0
0.0996003 -0.00160771 0
0.0992597 -0.000814776 0
0.100214 -0.004178 0
0.0980994 0.000992673 0
0.0988249 -0.00041998 0
0.093644 0.00364195 0
0.0957065 0.00181051 0
0.0969798 0.000736631 0
0.099323 -0.00263627 0
0.0988779 -0.00199864 0
0.100306 -0.00572766 0
0.0994983 -0.00396959 0
0.0977162 -0.00122886 0
0.0991883 -0.00286031 0
0.099438 -0.00417435 0
0.0955591 -6.28021e-06 0
0.0993753 -0.00438105 0
0.0935829 0.00137861 0
0.0998848 -0.00607474 0
0.0996555 -0.00552991 0
0.098415 -0.00322452 0
0.0992782 -0.00470575 0
0.0997632 -0.0067752 0
0.0988052 -0.0042161 0
0.0991754 -0.00503489 0
0.0911665 0.00202189 0
0.099459 -0.00579958 0
0.0990089 -0.00553933 0
0.0953735 -0.00180222 0
0.0911638 0.00112648 0
0.0995807 -0.00718338 0
0.0972525 -0.00399164 0
0.098829 -0.0060534 0
0.100198 -0.00591577 0
0.091153 0.000237055 0
0.0934221 -0.00151604 0
0.0963398 -0.00372292 0
0.0976522 -0.00495955 0
0.0985412 -0.00682134 0
0.091127 -0.000917182 0
0.0997853 -0.00885116 0
0.0950902 -0.00404435 0
0.0978382 -0.00658807 0
0.0988672 -0.00798183 0
0.0993615 -0.00914786 0
0.0982242 -0.00760806 0
0.0910871 -0.00206108 0
0.0987219 -0.00838425 0
0.0990772 -0.0089539 0
0.0967491 -0.00675012 0
0.098475 -0.00902264 0
0.0985942 0 0
0.0910147 -0.00352609 0
0.0947589 -0.00626948 0
0.0977241 -0.00875144 0
0.0930881 -0.00514556 0
0.0992273 -0.0103322 0
0.0877823 -0.00231287 0
0.0980649 -0.0100139 0
0.09092 -0.00497591 0
0.0971646 -0.00992657 0
0.095357 -0.00918139 0
0.0877703 -0.00415429 0
0.0960824 -0.010037 0
0.0942985 -0.00898373 0
0.0990255 -0.0119525 0
0.0986368 -0.012194 0
0.0980069 -0.0119379 0
0.0907683 -0.00680045 0
0.0973816 -0.011521 0
0.0979202 -0.0121332 0
0.0978317 -0.01233 0
0.0981759 -0.0127877 0
0.0963051 -0.0115811 0
0.0976956 -0.0126384 0
0.0975551 -0.0129502 0
0.0924912 -0.00960023 0
0.0877033 -0.00648408 0
0.090584 -0.00860264 0
0.0973345 -0.0134265 0
0.0977518 -0.0137134 0
0.0980617 -0.013789 0
0.0937824 -0.0116692 0
0.0971039 -0.0139101 0
0.0988721 -0.00861271 0
0.0962423 -0.0137591 0
0.0953391 -0.0132803 0
0.0967483 -0.0146295 0
0.0903125 -0.010824 0
0.0841881 -0.00688074 0
0.0875396 -0.00940084 0
0.0963709 -0.0153634 0
0.0976863 -0.0153483 0
0.0841825 -0.00782516 0
0.0980318 -0.0150264 0
0.0967571 -0.0163422 0
0.0841678 -0.00876287 0
0.0977123 -0.0132351 0
0.0930948 -0.0148361 0
0.0899987 -0.0130114 0
0.095799 -0.0164254 0
0.0970419 -0.0165389 0
0.0939153 -0.0155843 0
0.0965751 -0.0167162 0
0.0841367 -0.0099365 0
0.0973996 -0.0164234 0
0.0915354 -0.0149111 0
0.0962751 -0.0173074 0
0.0943632 -0.0169863 0
0.0872194 -0.0129892 0
0.0951834 -0.0175128 0
0.0840919 -0.0110998 0
0.095794 -0.0182214 0
0.0895613 -0.0156356 0
0.0840181 -0.0125499 0
0.0923353 -0.0179402 0
0.09427 -0.0190392 0
0.0965516 -0.0184296 0
0.0950274 -0.0196031 0
0.0968648 -0.0180206 0
0.0839246 -0.0139835 0
0.0890721 -0.0182087 0
0.0932765 -0.020604 0
0.0866658 -0.0172985 0
0.0952613 -0.0205919 0
0.0795798 -0.012544 0
0.0951633 -0.0207704 0
0.0837827 -0.0157487 0
0.0955318 -0.0205709 0
0.0950639 -0.0209499 0
0.0949111 -0.0212312 0
0.0967698 -0.0112332 0
0.0938123 -0.0216434 0
0.0955513 -0.0207054 0
0.0947549 -0.0215151 0
0.0913573 -0.0214651 0
0.0795692 -0.0144444 0
0.0901178 -0.0210052 0
0.0945129 -0.021948 0
0.0836136 -0.0174879 0
0.0942632 -0.0223867 0
0.0947562 -0.0221673 0
0.0884198 -0.0212002 0
0.0918461 -0.0227242 0
0.0938839 -0.0230378 0
0.0951777 -0.021567 0
0.0953025 0 0
0.079509 -0.0167545 0
0.0833705 -0.0195904 0
0.0955008 -0.0209011 0
0.0934878 -0.0237007 0
0.0919024 -0.0245739 0
0.0857901 -0.0223216 0
0.0928979 -0.0246576 0
0.0948272 -0.0222634 0
0.0902868 -0.0248913 0
0.087703 -0.0241149 0
0.0830908 -0.0216531 0
0.0793656 -0.0195532 0
0.092274 -0.0256356 0
0.0945768 -0.00657695 0
0.0937906 -0.0244277 0
0.0933407 -0.0250836 0
0.0931501 -0.0254224 0
0.0928404 -0.0259564 0
0.074886 -0.018411 0
0.0827075 -0.0240897 0
0.0913639 -0.0270056 0
0.0936348 -0.0245824 0
0.0748799 -0.01936 0
0.0923502 -0.0267792 0
0.0790927 -0.0229075 0
0.0881283 -0.027709 0
0.0748653 -0.0203048 0
0.0939417 -0.0236708 0
0.0867877 -0.0273931 0
0.0938872 -0.0191317 0
0.0903901 -0.0284082 0
0.091583 -0.0280177 0
0.0889575 -0.0286361 0
0.0748366 -0.0214297 0
0.0822768 -0.0264671 0
0.0845022 -0.0279769 0
0.094039 -0.0136754 0
0.0747963 -0.0225481 0
0.0890065 -0.0303069 0
0.0903928 -0.0298379 0
0.074734 -0.0238886 0
0.0786301 -0.0268537 0
0.0920144 -0.0275907 0
0.0857951 -0.030565 0
0.0916681 -0.0283783 0
0.0817109 -0.0291989 0
0.0911844 -0.0293059 0
0.0746553 -0.0252184 0
0.091089 -0.029468 0
0.0909925 -0.0296309 0
0.0908427 -0.029886 0
0.0918535 -0.0275798 0
0.0906903 -0.0301429 0
0.0904554 -0.030534 0
0.0875159 -0.0322461 0
0.0921974 -0.0262774 0
0.0745404 -0.0268061 0
0.0902144 -0.0309293 0
0.0885633 -0.0324408 0
0.0898505 -0.0315144 0
0.0915603 -0.0276802 0
0.0810879 -0.0318482 0
0.0904421 -0.0305239 0
0.0744029 -0.0283767 0
0.089473 -0.032108 0
0.0692928 -0.0252425 0
0.0779071 -0.0313792 0
0.0845778 -0.0340092 0
0.0889147 -0.0329622 0
0.0827203 -0.0341042 0
0.0742106 -0.030232 0
0.0854699 -0.0347662 0
0.0692841 -0.0270882 0
0.0883284 -0.0338318 0
0.0803013 -0.0347973 0
0.0739879 -0.0320591 0
0.0899117 -0.0304042 0
0.0874797 -0.0350457 0
0.0893349 -0.0320479 0
0.0857949 -0.0360366 0
0.0692362 -0.0292206 0
0.090267 -0.0287339 0
0.088639 -0.0335108 0
0.0884592 -0.0338248 0
0.0907078 -0.0158159 0
0.0865782 -0.0362838 0
0.0832707 -0.037318 0
0.0881712 -0.0343175 0
0.0736877 -0.0341797 0
0.0877183 -0.0350713 0
0.0691256 -0.0317022 0
0.089795 0 0
0.0768504 -0.0364045 0
0.0794513 -0.0376389 0
0.0853054 -0.037954 0
0.0870147 -0.0361963 0
0.0733485 -0.0362549 0
0.0689221 -0.0345918 0
0.0859327 -0.0378318 0
0.0885942 -0.0241302 0
0.0839426 -0.039654 0
0.0874965 -0.0340141 0
0.0803843 -0.0404745 0
0.087743 -0.0331225 0
0.0638266 -0.0321111 0
0.0881721 -0.0310031 0
0.0817282 -0.0407783 0
0.0729088 -0.0386068 0
0.0784194 -0.0406943 0
0.06382 -0.0330029 0
0.0876341 -0.0325179 0
0.0866704 -0.0355958 0
0.0638069 -0.0338961 0
0.0842858 -0.0401417 0
0.0685844 -0.0379259 0
0.0858851 -0.037334 0
0.0820796 -0.0418556 0
0.063782 -0.0348901 0
0.085801 -0.0374891 0
0.0857158 -0.0376447 0
0.0753945 -0.0417752 0
0.0855815 -0.0378873 0
0.072423 -0.0408882 0
0.0854447 -0.0381308 0
0.0637484 -0.0358861 0
0.0852341 -0.0384998 0
0.085018 -0.0388709 0
0.0846934 -0.0394169 0
0.0636996 -0.0370153 0
0.0773209 -0.0436168 0
0.0843576 -0.039967 0
0.0800835 -0.0440768 0
0.0636386 -0.0381454 0
0.0849594 -0.0380489 0
0.0838636 -0.0407525 0
0.0818171 -0.0432913 0
0.0718195 -0.043399 0
0.0868635 -0.0177634 0
0.0859323 -0.0330888 0
0.0680627 -0.0416973 0
0.0854223 -0.0356205 0
0.0833471 -0.041545 0
0.0635551 -0.0394379 0
0.0826039 -0.0426411 0
0.0634549 -0.0407278 0
0.0818185 -0.0437474 0
0.0760397 -0.046646 0