# vtk DataFile Version 3.0
File generated from DClib
ASCII

DATASET UNSTRUCTURED_GRID
POINTS 1909 float
50 0 0 
48.75 0 0 
50 1.66667 0 
47.5 0 0 
50 3.33333 0 
46.25 0 0 
50 5 0 
45 0 0 
43.75 0 0 
50 6.66667 0 
43 2 0 
42.5 0 0 
50 8.33333 0 
43 4.66667 0 
41.25 0 0 
41.075 2 0 
50 10 0 
40 0 0 
43 7.33333 0 
39.15 2 0 
38.75 0 0 
43 10 0 
37.5 0 0 
37.225 2 0 
36.25 0 0 
36 4 0 
35.3 2 0 
36 5 0 
35 0 0 
35.325 4 0 
36 6 0 
36 7 0 
34.65 4 0 
36 8 0 
33.75 0 0 
33.975 4 0 
36 9 0 
33.375 2 0 
33.3 4 0 
36 10 0 
32.5 0 0 
32.625 4 0 
33 6 0 
31.95 4 0 
33 7.45455 0 
31.45 2 0 
31.25 0 0 
31.95 6 0 
33 8.79545 0 
31.275 4 0 
33 10 0 
30.6 4 0 
30 0 0 
30.9 6 0 
29.925 4 0 
29.525 2 0 
29.85 6 0 
29.25 4 0 
28.75 0 0 
30 8 0 
30 8.45455 0 
28.575 4 0 
29.625 8 0 
30 8.90909 0 
28.8 6 0 
30 9.25 0 
29.782 8.90909 0 
30 9.59091 0 
29.9487 9.59091 0 
29.25 8 0 
29.7462 9.25 0 
30 9.79545 0 
29.897 9.59091 0 
29.564 8.90909 0 
29.9547 9.79545 0 
29.3462 8.45455 0 
29.84 9.59091 0 
30 10 0 
29.8975 9.79545 0 
29.9882 10 0 
29.9902 10.0098 0 
29.7827 9.59091 0 
29.9765 10 0 
29.9804 10.0196 0 
29.9667 10.0098 0 
29.9591 10 0 
29.9686 10.0196 0 
29.9659 10.0341 0 
29.9569 10.0196 0 
29.9418 10 0 
29.9395 10.0196 0 
29.9515 10.0485 0 
29.932 10.0098 0 
29.9424 10.0341 0 
29.8241 9.79545 0 
29.7181 9.59091 0 
29.9166 10 0 
29.9397 10.0485 0 
29.9222 10.0196 0 
29.9279 10.0485 0 
29.9305 10.0695 0 
29.8914 10 0 
29.9077 10.0341 0 
27.9 4 0 
29.897 10.0196 0 
29.9106 10.0485 0 
29.8817 10.0098 0 
29.907 10.0695 0 
29.8933 10.0485 0 
29.9095 10.0905 0 
29.8719 10.0196 0 
27.6 2 0 
29.8556 10 0 
29.8978 10.0905 0 
29.6531 9.59091 0 
29.3437 8.90909 0 
27.5 0 0 
29.8681 10.0485 0 
29.886 10.0905 0 
29.8574 10.0341 0 
29.4839 9.25 0 
29.8723 10.0695 0 
29.7289 9.79545 0 
29.836 10.0196 0 
29.8687 10.0905 0 
29.8197 10 0 
29.8797 10.1203 0 
29.843 10.0485 0 
29.8513 10.0905 0 
29.81 10.0098 0 
29.8561 10.1203 0 
29.8002 10.0196 0 
29.8221 10.0695 0 
29.8072 10.0485 0 
29.8262 10.0905 0 
29.5782 9.59091 0 
29.8498 10.1502 0 
29.7695 10 0 
29.7858 10.0341 0 
29.838 10.1502 0 
29.8215 10.1203 0 
29.8011 10.0905 0 
29.8262 10.1502 0 
29.7714 10.0485 0 
28.875 8 0 
29.75 10.0196 0 
29.8089 10.1502 0 
29.7654 10.0905 0 
29.7193 10 0 
29.7916 10.1502 0 
29.7505 10.0695 0 
29.8079 10.1921 0 
29.7713 10.1203 0 
29.7096 10.0098 0 
29.6047 9.79545 0 
29.503 9.59091 0 
29.7213 10.0485 0 
29.7665 10.1502 0 
29.6999 10.0196 0 
29.7844 10.1921 0 
29.7296 10.0905 0 
29.6856 10.0341 0 
29.7414 10.1502 0 
29.7497 10.1921 0 
29.6503 10 0 
29.7661 10.2339 0 
29.6712 10.0485 0 
29.6999 10.1203 0 
29.7543 10.2339 0 
29.6796 10.0905 0 
29.7057 10.1502 0 
29.7425 10.2339 0 
29.1235 8.90909 0 
29.6309 10.0196 0 
29.6504 10.0695 0 
29.4146 9.59091 0 
29.7252 10.2339 0 
29.6996 10.1921 0 
29.6701 10.1502 0 
29.7079 10.2339 0 
29.6296 10.0905 0 
29.5813 10 0 
29.6023 10.0485 0 
29.5716 10.0098 0 
29.6828 10.2339 0 
29.7086 10.2914 0 
29.2101 9.25 0 
29.562 10.0196 0 
29.6201 10.1502 0 
29.6578 10.2339 0 
29.4428 9.79545 0 
29.5999 10.1203 0 
29.6849 10.2914 0 
29.6283 10.1921 0 
29.5477 10.0341 0 
29.3259 9.59091 0 
29.5608 10.0905 0 
29.5335 10.0485 0 
29.6221 10.2339 0 
29.6503 10.2914 0 
29.5702 10.1502 0 
29.4881 10 0 
29.5128 10.0695 0 
29.6511 10.3489 0 
29.5866 10.2339 0 
29.6392 10.3489 0 
29.4689 10.0196 0 
29.6002 10.2914 0 
29.6273 10.3489 0 
29.4921 10.0905 0 
29.61 10.3489 0 
29.5286 10.1921 0 
29.5016 10.1502 0 
29.5368 10.2339 0 
29.5926 10.3489 0 
29.4405 10.0485 0 
29.2199 9.59091 0 
29.4626 10.1203 0 
29.3949 10 0 
28.9 8.90909 0 
29.5676 10.3489 0 
29.5291 10.2914 0 
29.3853 10.0098 0 
28.6923 8.45455 0 
29.487 10.2339 0 
29.5426 10.3489 0 
29.3758 10.0196 0 
29.5734 10.4266 0 
29.4331 10.1502 0 
29.3993 10.0905 0 
28.5 8 0 
29.3617 10.0341 0 
29.5496 10.4266 0 
29.5071 10.3489 0 
29.2327 9.79545 0 
29.3475 10.0485 0 
29.1136 9.59091 0 
29.4187 10.2339 0 
29.5148 10.4266 0 
29.4716 10.3489 0 
29.3918 10.1921 0 
29.3271 10.0695 0 
29.4298 10.2914 0 
29.2714 10 0 
29.3406 10.1502 0 
28.9208 9.25 0 
29.3066 10.0905 0 
29.4648 10.4266 0 
29.422 10.3489 0 
29.4958 10.5042 0 
29.2524 10.0196 0 
27.75 6 0 
29.3504 10.2339 0 
29.4837 10.5042 0 
29.4718 10.5042 0 
29.2774 10.1203 0 
29.4543 10.5042 0 
29.3724 10.3489 0 
29.2244 10.0485 0 
29.4369 10.5042 0 
29.3938 10.4266 0 
28.9853 9.59091 0 
29.2481 10.1502 0 
28.6766 8.90909 0 
29.4119 10.5042 0 
29.2934 10.2914 0 
27.225 4 0 
29.148 10 0 
29.2582 10.2339 0 
29.1837 10.0905 0 
29.3869 10.5042 0 
29.1385 10.0098 0 
29.3044 10.3489 0 
29.1291 10.0196 0 
29.2072 10.1921 0 
29.3514 10.5042 0 
29.1152 10.0341 0 
29.3929 10.6071 0 
29.2949 10.4266 0 
29.1013 10.0485 0 
29.3686 10.6071 0 
29.316 10.5042 0 
29.2364 10.3489 0 
28.9623 9.79545 0 
29.1257 10.1502 0 
29.1662 10.2339 0 
29.0811 10.0695 0 
28.8566 9.59091 0 
29.3336 10.6071 0 
29.2666 10.5042 0 
29.0609 10.0905 0 
28.9875 10 0 
29.2835 10.6071 0 
29.1448 10.3489 0 
29.0321 10.1203 0 
29.2173 10.5042 0 
29.1098 10.2914 0 
28.125 8 0 
28.9688 10.0196 0 
29.1594 10.4266 0 
28.611 9.25 0 
29.29 10.71 0 
28.4486 8.90909 0 
29.0443 10.2339 0 
29.0033 10.1502 0 
29.2777 10.71 0 
28.9413 10.0485 0 
29.2128 10.6071 0 
29.2655 10.71 0 
29.1497 10.5042 0 
29.2478 10.71 0 
28.7003 9.59091 0 
29.0533 10.3489 0 
29.2303 10.71 0 
28.9629 10.1921 0 
28.9013 10.0905 0 
29.2051 10.71 0 
29.0822 10.5042 0 
29.1801 10.71 0 
28.827 10 0 
29.1144 10.6071 0 
28.8177 10.0098 0 
28.9225 10.2339 0 
28.8085 10.0196 0 
29.1447 10.71 0 
28.7949 10.0341 0 
28.8443 10.1502 0 
28.977 10.4266 0 
28.9322 10.3489 0 
29.1094 10.71 0 
28.7813 10.0485 0 
28.9912 10.5042 0 
29.1562 10.8438 0 
28.5436 9.59091 0 
28.7615 10.0695 0 
28.8669 10.2914 0 
29.1313 10.8438 0 
28.6184 9.79545 0 
29.0602 10.71 0 
28.2207 8.90909 0 
28.7418 10.0905 0 
28.0378 8.45455 0 
28.9798 10.6071 0 
29.0958 10.8438 0 
29.0112 10.71 0 
28.9005 10.5042 0 
28.7136 10.1203 0 
28.7644 10.2339 0 
28.8113 10.3489 0 
29.0454 10.8438 0 
28.6223 10 0 
28.6854 10.1502 0 
28.2746 9.25 0 
28.9441 10.71 0 
28.6042 10.0196 0 
27.75 8 0 
28.9747 10.8438 0 
28.6459 10.1921 0 
28.5773 10.0485 0 
29.0225 10.9775 0 
28.3532 9.59091 0 
28.7804 10.5042 0 
28.736 10.4266 0 
28.8772 10.71 0 
29.0097 10.9775 0 
28.9971 10.9775 0 
28.799 10.6071 0 
28.9791 10.9775 0 
28.5384 10.0905 0 
28.6064 10.2339 0 
28.6543 10.3489 0 
28.9611 10.9775 0 
28.8769 10.8438 0 
27.9867 8.90909 0 
26.25 0 0 
28.9358 10.9775 0 
28.7871 10.71 0 
28.9106 10.9775 0 
28.6607 10.5042 0 
28.4177 10 0 
26.55 4 0 
28.552 10.2914 0 
28.483 10.1502 0 
28.4087 10.0098 0 
28.8751 10.9775 0 
28.3998 10.0196 0 
28.3866 10.0341 0 
28.8399 10.9775 0 
28.6974 10.71 0 
28.3735 10.0485 0 
28.1625 9.59091 0 
28.7436 10.8438 0 
28.4976 10.3489 0 
28.3543 10.0695 0 
28.791 10.9775 0 
28.4052 10.2339 0 
28.3352 10.0905 0 
28.8519 11.1481 0 
28.1869 9.79545 0 
28.5607 10.6071 0 
28.5053 10.5042 0 
28.7423 10.9775 0 
28.8258 11.1481 0 
28.308 10.1203 0 
28.5787 10.71 0 
27.904 9.25 0 
28.7893 11.1481 0 
28.424 10.4266 0 
27.7528 8.90909 0 
28.2807 10.1502 0 
28.6758 10.9775 0 
27.375 8 0 
28.7383 11.1481 0 
28.1619 10 0 
28.5649 10.8438 0 
28.2425 10.1921 0 
28.6096 10.9775 0 
28.1444 10.0196 0 
28.298 10.3489 0 
28.4605 10.71 0 
26.7 6 0 
27.9315 9.59091 0 
28.3503 10.5042 0 
28.6676 11.1481 0 
28.1187 10.0485 0 
28.2042 10.2339 0 
28.5207 10.9775 0 
28.0813 10.0905 0 
28.6814 11.3186 0 
27.3818 8.45455 0 
28.6679 11.3186 0 
28.1516 10.2914 0 
28.5703 11.1481 0 
28.6544 11.3186 0 
28.6358 11.3186 0 
27.5109 8.90909 0 
28.3072 10.71 0 
28.6173 11.3186 0 
28.2524 10.6071 0 
28.4322 10.9775 0 
28.028 10.1502 0 
28.5915 11.3186 0 
28.0989 10.3489 0 
28.33 10.8438 0 
28.5658 11.3186 0 
28.153 10.5042 0 
27.9061 10 0 
27.8975 10.0098 0 
28.5303 11.3186 0 
28.4384 11.1481 0 
27.7002 9.59091 0 
27.889 10.0196 0 
27.8765 10.0341 0 
28.4949 11.3186 0 
28.3154 10.9775 0 
27.9532 10.2339 0 
27.8639 10.0485 0 
28.0276 10.4266 0 
28.1544 10.71 0 
27.8457 10.0695 0 
27.4909 9.25 0 
28.4463 11.3186 0 
27 8 0 
27.8275 10.0905 0 
28.3979 11.3186 0 
27.8015 10.1203 0 
27.6542 9.79545 0 
25.675 2 0 
28.1991 10.9775 0 
27.2691 8.90909 0 
27.9563 10.5042 0 
28.4682 11.5318 0 
28.2625 11.1481 0 
27.7755 10.1502 0 
28.3322 11.3186 0 
27.8502 10.3489 0 
28.4401 11.5318 0 
25.875 4 0 
27.7391 10.1921 0 
28.4019 11.5318 0 
28.0268 10.8438 0 
28.2668 11.3186 0 
27.9602 10.71 0 
28.3498 11.5318 0 
27.4223 9.59091 0 
27.7026 10.2339 0 
27.5927 10 0 
28.0486 10.9775 0 
27.8616 10.6071 0 
27.5762 10.0196 0 
28.1794 11.3186 0 
28.2786 11.5318 0 
27.5519 10.0485 0 
27.6524 10.2914 0 
28.0319 11.1481 0 
27.7108 10.5042 0 
27.5167 10.0905 0 
27.0169 8.90909 0 
28.0924 11.3186 0 
27.6021 10.3489 0 
27.8988 10.9775 0 
28.1818 11.5318 0 
27.7667 10.71 0 
26.625 8 0 
28.255 11.745 0 
27.4664 10.1502 0 
28.2402 11.745 0 
28.2256 11.745 0 
28.2059 11.745 0 
27.978 11.3186 0 
26.7234 8.45455 0 
27.0259 9.25 0 
27.5342 10.4266 0 
28.1863 11.745 0 
27.1442 9.59091 0 
28.0516 11.5318 0 
28.1598 11.745 0 
27.3959 10.2339 0 
28.1334 11.745 0 
27.2793 10 0 
27.2714 10.0098 0 
27.2635 10.0196 0 
27.7086 10.9775 0 
27.6431 10.8438 0 
28.0975 11.745 0 
27.8643 11.3186 0 
27.4661 10.5042 0 
27.2518 10.0341 0 
27.2401 10.0485 0 
28.0617 11.745 0 
26.7648 8.90909 0 
27.5255 10.71 0 
27.7353 11.1481 0 
27.2231 10.0695 0 
28.0133 11.745 0 
27.2061 10.0905 0 
27.8791 11.5318 0 
27.2986 10.3489 0 
27.1818 10.1203 0 
27.9651 11.745 0 
27.3758 10.6071 0 
27.0077 9.79545 0 
27.7174 11.3186 0 
27.1576 10.1502 0 
25 0 0 
27.5193 10.9775 0 
27.9003 11.745 0 
27.1236 10.1921 0 
26.25 8 0 
27.9939 12.0061 0 
25.65 6 0 
27.8359 11.745 0 
26.8136 9.59091 0 
27.0896 10.2339 0 
27.9626 12.0061 0 
27.2853 10.71 0 
25.2 4 0 
27.5713 11.3186 0 
27.9218 12.0061 0 
26.4998 8.90909 0 
27.167 10.5042 0 
27.6541 11.5318 0 
27.0427 10.2914 0 
27.7503 11.745 0 
26.9033 10 0 
27.8677 12.0061 0 
26.8882 10.0196 0 
26.8659 10.0485 0 
26.9958 10.3489 0 
27.2836 10.9775 0 
27.6652 11.745 0 
27.3609 11.1481 0 
27.7955 12.0061 0 
26.499 9.25 0 
[...]
POINT_DATA 1909
SCALARS phi float 1
LOOKUP_TABLE default
VECTORS Displacement float
0 0 0
0 0 0
0 -0.00183959 0
0 0 0
0 -0.000916504 0
0 0 0
0 0.00248722 0
0 0 0
0 0 0
0 0.00812203 0
0.0161334 -0.000650459 0
0 0 0
0 0.0157161 0
0.0304479 0.00575542 0
0 0 0
0.0218187 -0.000640657 0
0 0.0246029 0
0 0 0
0.0402208 0.0182486 0
0.0278714 -0.000768364 0
0 0 0
0.0454463 0.0347407 0
0 0 0
0.0341041 -0.00109779 0
0 0 0
0.0636467 0.00420354 0
0.0401523 -0.00159058 0
0.0754407 0.00918464 0
0 0 0
0.0683056 0.00383418 0
0.0835834 0.0155304 0
0.0888183 0.0227526 0
0.0727042 0.00344391 0
0.0920847 0.0301138 0
0 0 0
0.0770223 0.00286203 0
0.094584 0.0376294 0
0.0457003 -0.00220165 0
0.0811167 0.00223942 0
0.096977 0.0458721 0
0 0 0
0.0849818 0.00151936 0
0.109814 0.0130242 0
0.0886043 0.000756242 0
0.120635 0.0257123 0
0.0505116 -0.00290361 0
0 0 0
0.118775 0.00952472 0
0.125525 0.0419137 0
0.0919638 -7.16876e-05 0
0.126483 0.0638853 0
0.0950439 -0.00094086 0
0 0 0
0.125882 0.00639569 0
0.09785 -0.00185829 0
0.0544052 -0.00368975 0
0.131814 0.00317956 0
0.100352 -0.00282223 0
0 0 0
0.155705 0.0141562 0
0.160623 0.0177241 0
0.102569 -0.00382222 0
0.158622 0.0118993 0
0.165727 0.0220707 0
0.136648 -0.000201307 0
0.169354 0.0284877 0
0.168093 0.0199193 0
0.173045 0.0376935 0
0.173763 0.0354222 0
0.16121 0.00968883 0
0.172354 0.0240494 0
0.173809 0.0440809 0
0.174465 0.0336277 0
0.170176 0.0179793 0
0.174486 0.0417412 0
0.166261 0.0130508 0
0.175144 0.0318593 0
0.173966 0.0513216 0
0.175402 0.0391215 0
0.174307 0.0515176 0
0.21302 0.0654761 0
0.175774 0.0303417 0
0.174694 0.0514952 0
0.23731 0.0735385 0
0.212022 0.064844 0
0.175294 0.0514126 0
0.236151 0.0728903 0
0.239643 0.0732237 0
0.234873 0.0720729 0
0.175946 0.0511869 0
0.232747 0.0709244 0
0.239706 0.0725349 0
0.210349 0.0633923 0
0.23856 0.0718719 0
0.176655 0.0363643 0
0.176391 0.0288398 0
0.176899 0.0505106 0
0.239626 0.0719519 0
0.230663 0.0696406 0
0.239553 0.0713929 0
0.240077 0.0718052 0
0.177882 0.0497956 0
0.236165 0.0699028 0
0.104467 -0.00488307 0
0.227899 0.0676578 0
0.239273 0.0706246 0
0.208392 0.0605514 0
0.239909 0.070692 0
0.238853 0.0697307 0
0.239819 0.0709094 0
0.225325 0.0656695 0
0.0572167 -0.00456879 0
0.179197 0.0482862 0
0.239755 0.0703335 0
0.176948 0.0274847 0
0.172159 0.0161764 0
0 0 0
0.237978 0.0682566 0
0.239673 0.0697202 0
0.232385 0.0664867 0
0.17497 0.0208432 0
0.23954 0.0688136 0
0.178301 0.033546 0
0.222296 0.062656 0
0.23953 0.0687343 0
0.18047 0.0468587 0
0.239496 0.0695771 0
0.23675 0.0666284 0
0.239381 0.0676891 0
0.206432 0.0559605 0
0.239347 0.0682233 0
0.219542 0.0598423 0
0.238453 0.0656351 0
0.23482 0.0640689 0
0.239122 0.0661129 0
0.17755 0.0261089 0
0.239041 0.0680401 0
0.182056 0.0446151 0
0.227301 0.0610787 0
0.238948 0.0673163 0
0.239086 0.0660709 0
0.238835 0.0645036 0
0.238854 0.0665762 0
0.232642 0.0615303 0
0.163734 0.00743383 0
0.216445 0.0559999 0
0.238709 0.0654696 0
0.238261 0.0622484 0
0.183472 0.0425335 0
0.238558 0.0643569 0
0.235889 0.0608924 0
0.238322 0.0657149 0
0.238658 0.0628706 0
0.204525 0.0498849 0
0.180295 0.0306629 0
0.178099 0.0248164 0
0.229642 0.0579762 0
0.238339 0.0627473 0
0.213858 0.0525968 0
0.238154 0.0641975 0
0.23749 0.0600274 0
0.22124 0.0540197 0
0.23812 0.0611701 0
0.237892 0.0619768 0
0.185146 0.0399013 0
0.237596 0.0633244 0
0.22668 0.0546886 0
0.237862 0.0584999 0
0.237502 0.062557 0
0.23611 0.0570462 0
0.237813 0.0589953 0
0.237407 0.0617994 0
0.173949 0.0143781 0
0.211071 0.0484437 0
0.231365 0.0546333 0
0.178763 0.0234789 0
0.237271 0.0607009 0
0.237505 0.0588905 0
0.237523 0.0569377 0
0.237138 0.0596281 0
0.234398 0.0542157 0
0.186528 0.0374721 0
0.222962 0.0505261 0
0.202673 0.0430867 0
0.236951 0.0581211 0
0.236613 0.060065 0
0.177408 0.0180036 0
0.208952 0.0448772 0
0.237051 0.0542666 0
0.236772 0.0566758 0
0.182534 0.0277058 0
0.236045 0.0530515 0
0.236449 0.0586096 0
0.236981 0.0548863 0
0.214964 0.0461563 0
0.179435 0.0222391 0
0.231758 0.0506265 0
0.219676 0.0468602 0
0.236524 0.0547228 0
0.236213 0.0565692 0
0.236511 0.0518082 0
0.188102 0.0348212 0
0.224982 0.0473077 0
0.235645 0.0569582 0
0.236288 0.0528935 0
0.235566 0.0562658 0
0.206663 0.0408934 0
0.235887 0.0538292 0
0.23549 0.0555903 0
0.228948 0.047339 0
0.23538 0.0546248 0
0.236288 0.0500625 0
0.235474 0.04877 0
0.235981 0.0505167 0
0.235273 0.0536927 0
0.215858 0.0426055 0
0.180275 0.020916 0
0.232226 0.0467646 0
0.189326 0.0323519 0
0.175598 0.0125619 0
0.235126 0.0523972 0
0.235462 0.0503398 0
0.200748 0.0362896 0
0.170832 0.00857767 0
0.235702 0.0483533 0
0.234985 0.051164 0
0.205013 0.0374796 0
0.234546 0.0531075 0
0.234114 0.0459778 0
0.225162 0.043387 0
0.166016 0.00512719 0
0.209214 0.0383757 0
0.234411 0.0518709 0
0.234795 0.0495052 0
0.184887 0.0245597 0
0.212784 0.0389579 0
0.181142 0.0196677 0
0.235314 0.0456549 0
0.234222 0.0501662 0
0.234619 0.0479539 0
0.234946 0.0446126 0
0.217589 0.0395836 0
0.234949 0.0461606 0
0.190691 0.0297903 0
0.231804 0.0426207 0
0.179682 0.0151817 0
0.221593 0.0398751 0
0.233968 0.0478986 0
0.234388 0.0459428 0
0.233422 0.0495933 0
0.203102 0.0337686 0
0.140348 -0.00374135 0
0.234909 0.0432379 0
0.233367 0.0490309 0
0.233314 0.0484835 0
0.22595 0.0398493 0
0.233239 0.0477047 0
0.234174 0.0440921 0
0.209457 0.0349215 0
0.233166 0.046953 0
0.233641 0.045013 0
0.182173 0.0182402 0
0.229126 0.0395232 0
0.17713 0.0107451 0
0.233064 0.0459111 0
0.234369 0.0414101 0
0.106065 -0.00596885 0
0.191738 0.027354 0
0.234094 0.0403262 0
0.217337 0.0357957 0
0.232967 0.0449163 0
0.198725 0.0297063 0
0.233904 0.0417606 0
0.201689 0.0305011 0
0.231642 0.0386561 0
0.232832 0.0435735 0
0.204428 0.0310343 0
0.232252 0.0455085 0
0.233243 0.0415005 0
0.206933 0.0314404 0
0.232159 0.044526 0
0.232705 0.0423059 0
0.23366 0.0396417 0
0.187222 0.0209594 0
0.225347 0.0358259 0
0.232928 0.037653 0
0.210488 0.031931 0
0.183215 0.0168565 0
0.232027 0.0431781 0
0.232534 0.0406415 0
0.213756 0.0322478 0
0.192879 0.0246934 0
0.23185 0.0413753 0
0.233341 0.0370202 0
0.217991 0.0324822 0
0.232373 0.0390855 0
0.233318 0.0361431 0
0.168096 0.00278229 0
0.200037 0.0268665 0
0.232782 0.0373856 0
0.181809 0.0122331 0
0.231011 0.0418332 0
0.178551 0.00888358 0
0.230791 0.0344689 0
0.221572 0.0324607 0
0.230978 0.0413935 0
0.20438 0.0276028 0
0.23162 0.0390401 0
0.230946 0.040964 0
0.232161 0.0370965 0
0.230902 0.040355 0
0.184424 0.0152135 0
0.233012 0.0346475 0
0.230859 0.0397633 0
0.225394 0.032084 0
0.209977 0.0281975 0
0.230798 0.0389407 0
0.231962 0.0352477 0
0.230738 0.0381466 0
0.193778 0.0221205 0
0.231327 0.0361165 0
0.197088 0.0231614 0
0.228123 0.0314707 0
0.198953 0.0236225 0
0.230653 0.0370656 0
0.200808 0.0239518 0
0.217099 0.0284679 0
0.232269 0.0326923 0
0.232293 0.0317835 0
0.23057 0.0360298 0
0.202498 0.0241972 0
0.231706 0.0329335 0
0.229715 0.037662 0
0.185602 0.013595 0
0.204848 0.0244746 0
0.230221 0.0303417 0
0.229657 0.0368767 0
0.189448 0.0166239 0
0.230454 0.0346515 0
0.179862 0.00701672 0
0.207119 0.0246798 0
0.174487 0.00389931 0
0.23096 0.0325673 0
0.229575 0.0357991 0
0.23034 0.03334 0
0.231465 0.0307923 0
0.210283 0.0248739 0
0.224308 0.0278769 0
0.231177 0.0291225 0
0.229463 0.0343433 0
0.19472 0.0191407 0
0.213285 0.0249418 0
0.183861 0.00910533 0
0.230182 0.0316345 0
0.197948 0.0199813 0
0.169888 0.00041419 0
0.229312 0.0324216 0
0.217122 0.0248482 0
0.200813 0.0203978 0
0.228401 0.0338586 0
0.186942 0.0116487 0
0.231154 0.028154 0
0.231302 0.0274137 0
0.230026 0.0300226 0
0.228381 0.0334976 0
0.228361 0.0331433 0
0.230502 0.0283779 0
0.228333 0.0326459 0
0.204475 0.0206959 0
0.220413 0.0245469 0
0.229067 0.0259807 0
0.228306 0.0321593 0
0.229112 0.0299544 0
0.18107 0.00509715 0
0 0 0
0.228267 0.031484 0
0.229817 0.0279803 0
0.228227 0.0308262 0
0.230828 0.0257406 0
0.1955 0.0162428 0
0.107329 -0.00714018 0
0.223903 0.0238599 0
0.209481 0.0208229 0
0.196681 0.0165308 0
0.22817 0.0299273 0
0.197568 0.0166909 0
0.198657 0.0168313 0
0.228113 0.029057 0
0.229612 0.0260674 0
0.199722 0.0169431 0
0.188191 0.00971322 0
0.228851 0.0268846 0
0.226375 0.0229838 0
0.201218 0.0170606 0
0.228032 0.0278911 0
0.215953 0.0205395 0
0.202668 0.0171358 0
0.226938 0.029494 0
0.191574 0.0114058 0
0.22996 0.0235945 0
0.2301 0.0228583 0
0.227951 0.0267716 0
0.226905 0.0288243 0
0.204693 0.0171867 0
0.229347 0.0237095 0
0.185816 0.00569644 0
0.226858 0.0279156 0
0.228229 0.0215956 0
0.18216 0.00317123 0
0.206709 0.0171878 0
0.227839 0.0253067 0
0.171438 -0.00198005 0
0.226792 0.0266908 0
0.1962 0.012791 0
0.22851 0.0231995 0
0.20951 0.0171078 0
0.22773 0.0239157 0
0.197441 0.0129597 0
0.222599 0.0193681 0
0.229095 0.0215154 0
0.142883 -0.00744782 0
0.189554 0.00738108 0
0.228982 0.0201473 0
0.226701 0.0250684 0
0.198986 0.0130448 0
0.212233 0.0169266 0
0.227585 0.0221388 0
0.201233 0.0130875 0
0.225455 0.0254362 0
0.177294 -0.000853287 0
0.225444 0.0251196 0
0.215699 0.0165139 0
0.226576 0.0229731 0
0.225433 0.0248087 0
0.225418 0.0243815 0
0.183147 0.00117885 0
0.22874 0.018811 0
0.225403 0.023963 0
0.228929 0.0181891 0
0.227444 0.0204607 0
0.204364 0.0129895 0
0.225382 0.0233894 0
0.218735 0.0159213 0
0.228052 0.0188873 0
0.225361 0.0228301 0
0.226919 0.0168946 0
0.196814 0.00946244 0
0.19722 0.00947821 0
0.22533 0.0220707 0
0.226404 0.0203447 0
0.190757 0.00505166 0
0.197622 0.00948743 0
0.198152 0.00946991 0
0.225301 0.0213346 0
0.22726 0.0183522 0
0.20874 0.0126209 0
0.198709 0.00945341 0
0.221947 0.0148914 0
0.228338 0.016249 0
0.199538 0.00942163 0
0.187617 0.00192632 0
0.225258 0.0203504 0
0.172701 -0.00438447 0
0.200392 0.00938175 0
0.225216 0.019401 0
0.201601 0.00929715 0
0.193789 0.00537371 0
0.0587625 -0.00555195 0
0.227055 0.0163228 0
0.184005 -0.000819992 0
0.224211 0.0136904 0
0.223849 0.0208182 0
0.226167 0.0171126 0
0.202815 0.00918723 0
0.225159 0.0181535 0
0.21448 0.0117183 0
0.223834 0.0202192 0
0.108273 -0.00832115 0
0.204528 0.00899429 0
0.223811 0.0194275 0
0.227382 0.0137756 0
0.225097 0.0169471 0
0.227519 0.0131331 0
0.223779 0.0183785 0
0.191951 0.00225039 0
0.206256 0.00875933 0
0.197505 0.0056209 0
0.226759 0.013783 0
0.225833 0.0119333 0
0.197967 0.00552748 0
0.225013 0.0153828 0
0.223732 0.0169976 0
0.198722 0.00539624 0
0.208646 0.00836499 0
0.225812 0.0131241 0
0.220473 0.00983157 0
0.199901 0.00519862 0
0.184758 -0.00290322 0
0.224916 0.0138566 0
0.211011 0.00788515 0
0.226416 0.0113349 0
0.223664 0.0151984 0
0.226369 0.0101347 0
0.173729 -0.0068221 0
0.222158 0.0164856 0
0.20169 0.00488086 0
0.222156 0.0161969 0
0.222154 0.0159127 0
0.222152 0.0155349 0
0.224769 0.0118914 0
0.179259 -0.00567431 0
0.189153 -0.00230078 0
0.214009 0.00709098 0
0.222149 0.0151633 0
0.192925 -0.000543937 0
0.223562 0.0128703 0
0.222146 0.0146649 0
0.204272 0.00433197 0
0.222141 0.0141742 0
0.198077 0.00185821 0
0.198259 0.00179703 0
0.198451 0.00173877 0
0.225912 0.00831341 0
0.226082 0.00776824 0
0.222136 0.0135158 0
0.224598 0.00997571 0
0.216694 0.00613932 0
0.198715 0.00164502 0
0.19899 0.00155233 0
0.222128 0.0128673 0
0.185367 -0.00499237 0
0.224276 0.00657479 0
0.225222 0.00825066 0
0.199409 0.0014194 0
0.222113 0.0119987 0
0.199838 0.0012841 0
0.223395 0.00987896 0
0.207907 0.00337923 0
0.200479 0.00108913 0
0.222094 0.0111423 0
0.21952 0.00468262 0
0.195839 -0.00160064 0
0.224347 0.00755597 0
0.201138 0.000885943 0
0 0 0
0.225347 0.00541754 0
0.222059 0.0100045 0
0.20208 0.000583778 0
0.174483 -0.00926962 0
0.220263 0.0115603 0
0.144233 -0.0113433 0
0.222018 0.0088832 0
0.193774 -0.00384948 0
0.203054 0.000265306 0
0.220263 0.0109845 0
0.221507 0.00307546 0
0.10886 -0.00962382 0
0.224058 0.00521005 0
0.220261 0.010243 0
0.185866 -0.00718886 0
0.212692 0.0017333 0
0.223108 0.00610179 0
0.204406 -0.00021028 0
0.221952 0.00741125 0
0.198848 -0.00240557 0
0.220254 0.00927139 0
0.199104 -0.00256109 0
0.199511 -0.00278606 0
0.205795 -0.000721592 0
0.224357 0.00195724 0
0.221875 0.00596612 0
0.224249 0.00246115 0
0.220238 0.00798841 0
0.190253 -0.00708834 0
0.200126 -0.00311496 0
0.222838 0.000863997 0
0.223636 0.00232118 0
0.207684 -0.00147847 0
0.220204 0.00629665 0
0.221757 0.00410325 0
0.201023 -0.00360332 0
0.217782 -0.00101697 0
0.18621 -0.00939137 0
0.180392 -0.0105741 0
0.194322 -0.00714369 0
0.222612 0.00146068 0
0.209576 -0.00231191 0
0.175006 -0.0117517 0
0.218286 0.00679324 0
0.202346 -0.00432446 0
0.221619 0.00228319 0
0.218288 0.0064946 0
0.220139 0.00408607 0
0.223113 -0.00135647 0
0.218289 0.00619867 0
0.223146 -0.000457573 0
0.21829 0.00581956 0
0.218291 0.00544375 0
0.21829 0.00495286 0
0.199265 -0.00659196 0
0.211955 -0.00354752 0
0.199394 -0.00667244 0
0.199523 -0.00675339 0
0.218289 0.00446634 0
0.199706 -0.00687438 0
0.204282 -0.00539761 0
0.221409 -1.31573e-05 0
0.199888 -0.00699638 0
0.218284 0.00382477 0
0.20015 -0.00717552 0
0.220012 0.0012443 0
0.218278 0.00318951 0
0.20041 -0.00735694 0
0.20078 -0.00761948 0
0.186422 -0.0117281 0
0.214147 -0.00491758 0
0.218267 0.00235008 0
0.222564 -0.00419512 0
0.222444 -0.00380688 0
0.201145 -0.00788686 0
0.221167 -0.00224635 0
0.218252 0.00152057 0
0.22095 -0.0051912 0
0.196941 -0.00967575 0
0.201647 -0.00826947 0
0.221776 -0.0040808 0
0.20702 -0.00702174 0
0.218227 0.00042959 0
0.194638 -0.010974 0
0.202145 -0.00866112 0
0.175268 -0.0142476 0
0.21978 -0.00233515 0
0.109097 -0.0109061 0
0.218196 -0.000645658 0
0.216457 -0.0068608 0
0.190732 -0.0125167 0
0.202827 -0.00921533 0
0.220811 -0.00500044 0
0.215886 0.0011963 0
0.221654 -0.00701551 0
0.218146 -0.00204452 0
0.215888 0.000563336 0
0.203501 -0.0097908 0
0.186474 -0.0140695 0
0.215889 -0.000220674 0
0.199427 -0.0114209 0
0.199643 -0.0115901 0
0.218085 -0.00341958 0
0.218091 -0.00893312 0
0.210587 -0.00949347 0
0.215885 -0.00121475 0
0.199962 -0.0118427 0
0.204478 -0.0105744 0
0.220401 -0.00766545 0
0.200422 -0.0122156 0
0.180712 -0.0155625 0
0.219368 -0.00674088 0
0.215873 -0.00249279 0
0.217988 -0.00518194 0
0.205469 -0.0113901 0
0.201063 -0.0127614 0
0.144378 -0.0154591 0
0.220461 -0.0107667 0
0.1946 -0.0147826 0
0.215845 -0.00414333 0
0.22041 -0.010504 0
0.175304 -0.0167736 0
0.217874 -0.00690891 0
0.219106 -0.0116533 0
0.201936 -0.0135538 0
0.206795 -0.0125255 0
0.186366 -0.0165693 0
0.219813 -0.010877 0
0.215788 -0.00626739 0
0 0 0
0.217699 -0.00908413 0
0.214456 -0.0131864 0
0.21326 -0.00432491 0
0.203073 -0.0147014 0
0.208094 -0.0137321 0
0.213262 -0.00466346 0
0.213263 -0.00499958 0
0.0588319 -0.00662913 0
0.199111 -0.0161871 0
0.213264 -0.00541045 0
0.218658 -0.0120265 0
0.199215 -0.0162756 0
0.199317 -0.0163645 0
0.213265 -0.00581824 0
0.219094 -0.0143536 0
0.199464 -0.0164964 0
0.215677 -0.00897481 0
0.217493 -0.0112079 0
0.213265 -0.00632939 0
0.199609 -0.0166292 0
0.219134 -0.0139642 0
0.199816 -0.0168235 0
0.213264 -0.00683644 0
0.200021 -0.0170196 0
0.209694 -0.0154252 0
0.21326 -0.00748328 0
0.204528 -0.0163577 0
0.200308 -0.0173024 0
0.190379 -0.018646 0
0.108942 -0.0123552 0
0.213255 -0.00812444 0
0.186093 -0.0190705 0
0.200592 -0.0175891 0
0.175092 -0.019318 0
0.213245 -0.00894999 0
0.200981 -0.0179974 0
0.217187 -0.0138303 0
0.194198 -0.0191308 0
0.196508 -0.0188753 0
0.213231 -0.00976744 0
0.20136 -0.0184134 0
0.215473 -0.0123757 0
0.21119 -0.0172483 0
0.213208 -0.0108218 0
0.218235 -0.0177323 0
0.201865 -0.0189976 0
0.218177 -0.017609 0
0.180236 -0.0206468 0
0.206365 -0.0187349 0
0.216797 -0.0184019 0
0.213179 -0.0118644 0
0.202349 -0.0195951 0
0.216831 -0.0163824 0
0.217477 -0.0182062 0
0.213131 -0.013203 0
0.202976 -0.0204187 0
0.212717 -0.01974 0
0.185624 -0.0217521 0
0.20999 -0.0107545 0
0.215107 -0.0165689 0
0.198279 -0.0215575 0
0.213074 -0.014524 0
0.209991 -0.0114911 0
0.198448 -0.0217388 0
0.203575 -0.0212636 0
0.198696 -0.0220092 0
0.174662 -0.0218856 0
0.209989 -0.012362 0
0.216317 -0.0194673 0
0.217091 -0.0211124 0
0.199051 -0.0224069 0
0.212984 -0.0162036 0
0.209982 -0.0134207 0
0.204331 -0.0224184 0
0.208431 -0.0221643 0
0.199544 -0.0229851 0
0.193382 -0.0234546 0
0.21382 -0.0223766 0
0.209965 -0.0147347 0
0.212877 -0.0178572 0
0.200205 -0.0238168 0
0.205037 -0.0236144 0
0.215723 -0.0224609 0
0.209931 -0.0163862 0
0.184986 -0.0244323 0
0.214476 -0.0216309 0
0.212715 -0.0199309 0
0.201067 -0.0250009 0
0.108399 -0.0137228 0
0.1433 -0.0198201 0
0.215605 -0.025173 0
0.205868 -0.0252327 0
0.188952 -0.025512 0
0.209867 -0.0184712 0
0.215585 -0.0252665 0
0.214323 -0.0257474 0
0.174001 -0.0244691 0
0.212523 -0.0219671 0
0.202139 -0.0266721 0
0.214893 -0.0260075 0
0.196958 -0.0268324 0
0.206292 -0.0171921 0
0.197036 -0.0269253 0
0.197112 -0.0270186 0
0.206588 -0.026918 0
0.179001 -0.02582 0
0.206294 -0.017596 0
0.210474 -0.0269965 0
0.197224 -0.0271566 0
0.209749 -0.0210965 0
0.197335 -0.0272952 0
0.206295 -0.0179981 0
0.197494 -0.0274972 0
0.206295 -0.0184665 0
0.197651 -0.0277006 0
0.212241 -0.0244786 0
0.206295 -0.0189327 0
0.197871 -0.0279927 0
0.206293 -0.0194907 0
0.198088 -0.0282877 0
0.184101 -0.0273107 0
0.206289 -0.0200459 0
0.192037 -0.0282988 0
0.213923 -0.0290912 0
0.198385 -0.0287054 0
0.213427 -0.0276048 0
0.206283 -0.0207256 0
0.203377 -0.0290166 0
0.198675 -0.0291285 0
0.207337 -0.0291649 0
0.209539 -0.024373 0
0.206274 -0.0214015 0
0.211912 -0.0269374 0
0.213943 -0.0294389 0
0.194014 -0.0291577 0
0 0 0
0.199061 -0.0297197 0
0.206259 -0.0222428 0
0.173134 -0.0270687 0
0.199434 -0.0303214 0
0.20624 -0.0230786 0
0.206209 -0.0241282 0
0.199915 -0.0311506 0
0.20792 -0.031515 0
0.211441 -0.0299141 0
0.206173 -0.0251699 0
0.209176 -0.028407 0
0.200368 -0.0319998 0
0.204653 -0.0322867 0
0.212719 -0.0331848 0
0.183047 -0.0301826 0
0.206117 -0.0264808 0
0.212667 -0.0334289 0
0.211448 -0.0334642 0
0.10741 -0.015296 0
0.200925 -0.0331555 0
0.194973 -0.0326658 0
0.206051 -0.0277797 0
0.195109 -0.0328544 0
0.2109 -0.0328199 0
0.195307 -0.0331349 0
0.201642 -0.0246702 0
0.208435 -0.0345726 0
0.211756 -0.0344971 0
0.195588 -0.0335461 0
0.201431 -0.0343453 0
0.205951 -0.0294077 0
0.201642 -0.0255755 0
0.190255 -0.0330916 0
0.172061 -0.0296747 0
0.195976 -0.034141 0
0.201637 -0.0266005 0
0.17704 -0.0310692 0
0.208565 -0.0332868 0
0.186187 -0.0331107 0
0.205834 -0.0310179 0
0.196496 -0.0349913 0
0.20201 -0.0359423 0
0.201624 -0.0277929 0
0.211245 -0.0372833 0
0.205674 -0.0367924 0
0.21015 -0.036267 0
0.201597 -0.0292137 0
0.197163 -0.0361936 0
0.181693 -0.0332617 0
0.208672 -0.0377838 0
0.205662 -0.0330178 0
0.202497 -0.0375945 0
0.14098 -0.0244044 0
0.201549 -0.0309377 0
0.205463 -0.034991 0
0.197971 -0.0378778 0
0.0572437 -0.00773812 0
0.209301 -0.0396229 0
0.201465 -0.0330536 0
0.170798 -0.0322878 0
0.202978 -0.0397774 0
0.207571 -0.0390698 0
0.205177 -0.0374098 0
0.209367 -0.0416604 0
0.192488 -0.0383757 0
0.192548 -0.0384718 0
0.192608 -0.0385682 0
0.192697 -0.0387106 0
0.208288 -0.0418413 0
0.192786 -0.0388536 0
0.198879 -0.0402153 0
0.209207 -0.0422543 0
0.192913 -0.0390617 0
0.201322 -0.0356616 0
0.193039 -0.0392709 0
0.193216 -0.0395711 0
0.187827 -0.0383328 0
0.180171 -0.0363236 0
0.196466 -0.0323237 0
0.203298 -0.0420396 0
0.19339 -0.0398735 0
0.106014 -0.0166869 0
0.204848 -0.0397897 0
0.196467 -0.0328318 0
0.205945 -0.0429016 0
0.193627 -0.0403008 0
0.196466 -0.0333387 0
0.208154 -0.0435199 0
0.193857 -0.0407326 0
0.196464 -0.033903 0
0.196459 -0.034466 0
0.194163 -0.0413337 0
0.201082 -0.0388685 0
0.196452 -0.0351089 0
0.189199 -0.0403044 0
0.194455 -0.0419433 0
0.196443 -0.03575 0
0.199763 -0.0434271 0
0.204386 -0.0426601 0
0.174378 -0.0363747 0
0.196429 -0.0365001 0
0.169361 -0.0348932 0
0.207281 -0.0459393 0
0.203453 -0.0449588 0
0.194828 -0.0427795 0
0.196411 -0.0372476 0
0.206015 -0.0457687 0
0.195176 -0.0436306 0
0.196385 -0.0381401 0
0.206864 -0.0473109 0
0 0 0
0.196355 -0.039029 0
0.20069 -0.0427792 0
0.203862 -0.0454755 0
0.195598 -0.0447811 0
0.196311 -0.0401061 0
0.1783 -0.0395874 0
0.203365 -0.0479592 0
0.196259 -0.0411779 0
0.195976 -0.045957 0
0.181878 -0.0413461 0
0.200386 -0.0477815 0
0.196186 -0.0424878 0
0.189224 -0.0445305 0
0.189339 -0.0447237 0
0.189504 -0.0450104 0
0.184957 -0.0434721 0
0.203145 -0.0488088 0
0.196399 -0.0475227 0
0.205535 -0.0508973 0
0.189736 -0.0454296 0
0.196102 -0.0437896 0