# vtk DataFile Version 3.0
File generated from DClib
ASCII

DATASET UNSTRUCTURED_GRID
POINTS 1909 float
50 0 0 
48.75 0 0 
50 1.66667 0 
47.5 0 0 
50 3.33333 0 
46.25 0 0 
50 5 0 
45 0 0 
43.75 0 0 
50 6.66667 0 
43 2 0 
42.5 0 0 
50 8.33333 0 
43 4.66667 0 
41.25 0 0 
41.075 2 0 
50 10 0 
40 0 0 
43 7.33333 0 
39.15 2 0 
38.75 0 0 
43 10 0 
37.5 0 0 
37.225 2 0 
36.25 0 0 
36 4 0 
35.3 2 0 
36 5 0 
35 0 0 
35.325 4 0 
36 6 0 
36 7 0 
34.65 4 0 
36 8 0 
33.75 0 0 
33.975 4 0 
36 9 0 
33.375 2 0 
33.3 4 0 
36 10 0 
32.5 0 0 
32.625 4 0 
33 6 0 
31.95 4 0 
33 7.45455 0 
31.45 2 0 
31.25 0 0 
31.95 6 0 
33 8.79545 0 
31.275 4 0 
33 10 0 
30.6 4 0 
30 0 0 
30.9 6 0 
29.925 4 0 
29.525 2 0 
29.85 6 0 
29.25 4 0 
28.75 0 0 
30 8 0 
30 8.45455 0 
28.575 4 0 
29.625 8 0 
30 8.90909 0 
28.8 6 0 
30 9.25 0 
29.782 8.90909 0 
30 9.59091 0 
29.9487 9.59091 0 
29.25 8 0 
29.7462 9.25 0 
30 9.79545 0 
29.897 9.59091 0 
29.564 8.90909 0 
29.9547 9.79545 0 
29.3462 8.45455 0 
29.84 9.59091 0 
30 10 0 
29.8975 9.79545 0 
29.9882 10 0 
29.9902 10.0098 0 
29.7827 9.59091 0 
29.9765 10 0 
29.9804 10.0196 0 
29.9667 10.0098 0 
29.9591 10 0 
29.9686 10.0196 0 
29.9659 10.0341 0 
29.9569 10.0196 0 
29.9418 10 0 
29.9395 10.0196 0 
29.9515 10.0485 0 
29.932 10.0098 0 
29.9424 10.0341 0 
29.8241 9.79545 0 
29.7181 9.59091 0 
29.9166 10 0 
29.9397 10.0485 0 
29.9222 10.0196 0 
29.9279 10.0485 0 
29.9305 10.0695 0 
29.8914 10 0 
29.9077 10.0341 0 
27.9 4 0 
29.897 10.0196 0 
29.9106 10.0485 0 
29.8817 10.0098 0 
29.907 10.0695 0 
29.8933 10.0485 0 
29.9095 10.0905 0 
29.8719 10.0196 0 
27.6 2 0 
29.8556 10 0 
29.8978 10.0905 0 
29.6531 9.59091 0 
29.3437 8.90909 0 
27.5 0 0 
29.8681 10.0485 0 
29.886 10.0905 0 
29.8574 10.0341 0 
29.4839 9.25 0 
29.8723 10.0695 0 
29.7289 9.79545 0 
29.836 10.0196 0 
29.8687 10.0905 0 
29.8197 10 0 
29.8797 10.1203 0 
29.843 10.0485 0 
29.8513 10.0905 0 
29.81 10.0098 0 
29.8561 10.1203 0 
29.8002 10.0196 0 
29.8221 10.0695 0 
29.8072 10.0485 0 
29.8262 10.0905 0 
29.5782 9.59091 0 
29.8498 10.1502 0 
29.7695 10 0 
29.7858 10.0341 0 
29.838 10.1502 0 
29.8215 10.1203 0 
29.8011 10.0905 0 
29.8262 10.1502 0 
29.7714 10.0485 0 
28.875 8 0 
29.75 10.0196 0 
29.8089 10.1502 0 
29.7654 10.0905 0 
29.7193 10 0 
29.7916 10.1502 0 
29.7505 10.0695 0 
29.8079 10.1921 0 
29.7713 10.1203 0 
29.7096 10.0098 0 
29.6047 9.79545 0 
29.503 9.59091 0 
29.7213 10.0485 0 
29.7665 10.1502 0 
29.6999 10.0196 0 
29.7844 10.1921 0 
29.7296 10.0905 0 
29.6856 10.0341 0 
29.7414 10.1502 0 
29.7497 10.1921 0 
29.6503 10 0 
29.7661 10.2339 0 
29.6712 10.0485 0 
29.6999 10.1203 0 
29.7543 10.2339 0 
29.6796 10.0905 0 
29.7057 10.1502 0 
29.7425 10.2339 0 
29.1235 8.90909 0 
29.6309 10.0196 0 
29.6504 10.0695 0 
29.4146 9.59091 0 
29.7252 10.2339 0 
29.6996 10.1921 0 
29.6701 10.1502 0 
29.7079 10.2339 0 
29.6296 10.0905 0 
29.5813 10 0 
29.6023 10.0485 0 
29.5716 10.0098 0 
29.6828 10.2339 0 
29.7086 10.2914 0 
29.2101 9.25 0 
29.562 10.0196 0 
29.6201 10.1502 0 
29.6578 10.2339 0 
29.4428 9.79545 0 
29.5999 10.1203 0 
29.6849 10.2914 0 
29.6283 10.1921 0 
29.5477 10.0341 0 
29.3259 9.59091 0 
29.5608 10.0905 0 
29.5335 10.0485 0 
29.6221 10.2339 0 
29.6503 10.2914 0 
29.5702 10.1502 0 
29.4881 10 0 
29.5128 10.0695 0 
29.6511 10.3489 0 
29.5866 10.2339 0 
29.6392 10.3489 0 
29.4689 10.0196 0 
29.6002 10.2914 0 
29.6273 10.3489 0 
29.4921 10.0905 0 
29.61 10.3489 0 
29.5286 10.1921 0 
29.5016 10.1502 0 
29.5368 10.2339 0 
29.5926 10.3489 0 
29.4405 10.0485 0 
29.2199 9.59091 0 
29.4626 10.1203 0 
29.3949 10 0 
28.9 8.90909 0 
29.5676 10.3489 0 
29.5291 10.2914 0 
29.3853 10.0098 0 
28.6923 8.45455 0 
29.487 10.2339 0 
29.5426 10.3489 0 
29.3758 10.0196 0 
29.5734 10.4266 0 
29.4331 10.1502 0 
29.3993 10.0905 0 
28.5 8 0 
29.3617 10.0341 0 
29.5496 10.4266 0 
29.5071 10.3489 0 
29.2327 9.79545 0 
29.3475 10.0485 0 
29.1136 9.59091 0 
29.4187 10.2339 0 
29.5148 10.4266 0 
29.4716 10.3489 0 
29.3918 10.1921 0 
29.3271 10.0695 0 
29.4298 10.2914 0 
29.2714 10 0 
29.3406 10.1502 0 
28.9208 9.25 0 
29.3066 10.0905 0 
29.4648 10.4266 0 
29.422 10.3489 0 
29.4958 10.5042 0 
29.2524 10.0196 0 
27.75 6 0 
29.3504 10.2339 0 
29.4837 10.5042 0 
29.4718 10.5042 0 
29.2774 10.1203 0 
29.4543 10.5042 0 
29.3724 10.3489 0 
29.2244 10.0485 0 
29.4369 10.5042 0 
29.3938 10.4266 0 
28.9853 9.59091 0 
29.2481 10.1502 0 
28.6766 8.90909 0 
29.4119 10.5042 0 
29.2934 10.2914 0 
27.225 4 0 
29.148 10 0 
29.2582 10.2339 0 
29.1837 10.0905 0 
29.3869 10.5042 0 
29.1385 10.0098 0 
29.3044 10.3489 0 
29.1291 10.0196 0 
29.2072 10.1921 0 
29.3514 10.5042 0 
29.1152 10.0341 0 
29.3929 10.6071 0 
29.2949 10.4266 0 
29.1013 10.0485 0 
29.3686 10.6071 0 
29.316 10.5042 0 
29.2364 10.3489 0 
28.9623 9.79545 0 
29.1257 10.1502 0 
29.1662 10.2339 0 
29.0811 10.0695 0 
28.8566 9.59091 0 
29.3336 10.6071 0 
29.2666 10.5042 0 
29.0609 10.0905 0 
28.9875 10 0 
29.2835 10.6071 0 
29.1448 10.3489 0 
29.0321 10.1203 0 
29.2173 10.5042 0 
29.1098 10.2914 0 
28.125 8 0 
28.9688 10.0196 0 
29.1594 10.4266 0 
28.611 9.25 0 
29.29 10.71 0 
28.4486 8.90909 0 
29.0443 10.2339 0 
29.0033 10.1502 0 
29.2777 10.71 0 
28.9413 10.0485 0 
29.2128 10.6071 0 
29.2655 10.71 0 
29.1497 10.5042 0 
29.2478 10.71 0 
28.7003 9.59091 0 
29.0533 10.3489 0 
29.2303 10.71 0 
28.9629 10.1921 0 
28.9013 10.0905 0 
29.2051 10.71 0 
29.0822 10.5042 0 
29.1801 10.71 0 
28.827 10 0 
29.1144 10.6071 0 
28.8177 10.0098 0 
28.9225 10.2339 0 
28.8085 10.0196 0 
29.1447 10.71 0 
28.7949 10.0341 0 
28.8443 10.1502 0 
28.977 10.4266 0 
28.9322 10.3489 0 
29.1094 10.71 0 
28.7813 10.0485 0 
28.9912 10.5042 0 
29.1562 10.8438 0 
28.5436 9.59091 0 
28.7615 10.0695 0 
28.8669 10.2914 0 
29.1313 10.8438 0 
28.6184 9.79545 0 
29.0602 10.71 0 
28.2207 8.90909 0 
28.7418 10.0905 0 
28.0378 8.45455 0 
28.9798 10.6071 0 
29.0958 10.8438 0 
29.0112 10.71 0 
28.9005 10.5042 0 
28.7136 10.1203 0 
28.7644 10.2339 0 
28.8113 10.3489 0 
29.0454 10.8438 0 
28.6223 10 0 
28.6854 10.1502 0 
28.2746 9.25 0 
28.9441 10.71 0 
28.6042 10.0196 0 
27.75 8 0 
28.9747 10.8438 0 
28.6459 10.1921 0 
28.5773 10.0485 0 
29.0225 10.9775 0 
28.3532 9.59091 0 
28.7804 10.5042 0 
28.736 10.4266 0 
28.8772 10.71 0 
29.0097 10.9775 0 
28.9971 10.9775 0 
28.799 10.6071 0 
28.9791 10.9775 0 
28.5384 10.0905 0 
28.6064 10.2339 0 
28.6543 10.3489 0 
28.9611 10.9775 0 
28.8769 10.8438 0 
27.9867 8.90909 0 
26.25 0 0 
28.9358 10.9775 0 
28.7871 10.71 0 
28.9106 10.9775 0 
28.6607 10.5042 0 
28.4177 10 0 
26.55 4 0 
28.552 10.2914 0 
28.483 10.1502 0 
28.4087 10.0098 0 
28.8751 10.9775 0 
28.3998 10.0196 0 
28.3866 10.0341 0 
28.8399 10.9775 0 
28.6974 10.71 0 
28.3735 10.0485 0 
28.1625 9.59091 0 
28.7436 10.8438 0 
28.4976 10.3489 0 
28.3543 10.0695 0 
28.791 10.9775 0 
28.4052 10.2339 0 
28.3352 10.0905 0 
28.8519 11.1481 0 
28.1869 9.79545 0 
28.5607 10.6071 0 
28.5053 10.5042 0 
28.7423 10.9775 0 
28.8258 11.1481 0 
28.308 10.1203 0 
28.5787 10.71 0 
27.904 9.25 0 
28.7893 11.1481 0 
28.424 10.4266 0 
27.7528 8.90909 0 
28.2807 10.1502 0 
28.6758 10.9775 0 
27.375 8 0 
28.7383 11.1481 0 
28.1619 10 0 
28.5649 10.8438 0 
28.2425 10.1921 0 
28.6096 10.9775 0 
28.1444 10.0196 0 
28.298 10.3489 0 
28.4605 10.71 0 
26.7 6 0 
27.9315 9.59091 0 
28.3503 10.5042 0 
28.6676 11.1481 0 
28.1187 10.0485 0 
28.2042 10.2339 0 
28.5207 10.9775 0 
28.0813 10.0905 0 
28.6814 11.3186 0 
27.3818 8.45455 0 
28.6679 11.3186 0 
28.1516 10.2914 0 
28.5703 11.1481 0 
28.6544 11.3186 0 
28.6358 11.3186 0 
27.5109 8.90909 0 
28.3072 10.71 0 
28.6173 11.3186 0 
28.2524 10.6071 0 
28.4322 10.9775 0 
28.028 10.1502 0 
28.5915 11.3186 0 
28.0989 10.3489 0 
28.33 10.8438 0 
28.5658 11.3186 0 
28.153 10.5042 0 
27.9061 10 0 
27.8975 10.0098 0 
28.5303 11.3186 0 
28.4384 11.1481 0 
27.7002 9.59091 0 
27.889 10.0196 0 
27.8765 10.0341 0 
28.4949 11.3186 0 
28.3154 10.9775 0 
27.9532 10.2339 0 
27.8639 10.0485 0 
28.0276 10.4266 0 
28.1544 10.71 0 
27.8457 10.0695 0 
27.4909 9.25 0 
28.4463 11.3186 0 
27 8 0 
27.8275 10.0905 0 
28.3979 11.3186 0 
27.8015 10.1203 0 
27.6542 9.79545 0 
25.675 2 0 
28.1991 10.9775 0 
27.2691 8.90909 0 
27.9563 10.5042 0 
28.4682 11.5318 0 
28.2625 11.1481 0 
27.7755 10.1502 0 
28.3322 11.3186 0 
27.8502 10.3489 0 
28.4401 11.5318 0 
25.875 4 0 
27.7391 10.1921 0 
28.4019 11.5318 0 
28.0268 10.8438 0 
28.2668 11.3186 0 
27.9602 10.71 0 
28.3498 11.5318 0 
27.4223 9.59091 0 
27.7026 10.2339 0 
27.5927 10 0 
28.0486 10.9775 0 
27.8616 10.6071 0 
27.5762 10.0196 0 
28.1794 11.3186 0 
28.2786 11.5318 0 
27.5519 10.0485 0 
27.6524 10.2914 0 
28.0319 11.1481 0 
27.7108 10.5042 0 
27.5167 10.0905 0 
27.0169 8.90909 0 
28.0924 11.3186 0 
27.6021 10.3489 0 
27.8988 10.9775 0 
28.1818 11.5318 0 
27.7667 10.71 0 
26.625 8 0 
28.255 11.745 0 
27.4664 10.1502 0 
28.2402 11.745 0 
28.2256 11.745 0 
28.2059 11.745 0 
27.978 11.3186 0 
26.7234 8.45455 0 
27.0259 9.25 0 
27.5342 10.4266 0 
28.1863 11.745 0 
27.1442 9.59091 0 
28.0516 11.5318 0 
28.1598 11.745 0 
27.3959 10.2339 0 
28.1334 11.745 0 
27.2793 10 0 
27.2714 10.0098 0 
27.2635 10.0196 0 
27.7086 10.9775 0 
27.6431 10.8438 0 
28.0975 11.745 0 
27.8643 11.3186 0 
27.4661 10.5042 0 
27.2518 10.0341 0 
27.2401 10.0485 0 
28.0617 11.745 0 
26.7648 8.90909 0 
27.5255 10.71 0 
27.7353 11.1481 0 
27.2231 10.0695 0 
28.0133 11.745 0 
27.2061 10.0905 0 
27.8791 11.5318 0 
27.2986 10.3489 0 
27.1818 10.1203 0 
27.9651 11.745 0 
27.3758 10.6071 0 
27.0077 9.79545 0 
27.7174 11.3186 0 
27.1576 10.1502 0 
25 0 0 
27.5193 10.9775 0 
27.9003 11.745 0 
27.1236 10.1921 0 
26.25 8 0 
27.9939 12.0061 0 
25.65 6 0 
27.8359 11.745 0 
26.8136 9.59091 0 
27.0896 10.2339 0 
27.9626 12.0061 0 
27.2853 10.71 0 
25.2 4 0 
27.5713 11.3186 0 
27.9218 12.0061 0 
26.4998 8.90909 0 
27.167 10.5042 0 
27.6541 11.5318 0 
27.0427 10.2914 0 
27.7503 11.745 0 
26.9033 10 0 
27.8677 12.0061 0 
26.8882 10.0196 0 
26.8659 10.0485 0 
26.9958 10.3489 0 
27.2836 10.9775 0 
27.6652 11.745 0 
27.3609 11.1481 0 
27.7955 12.0061 0 
26.499 9.25 0 
[...]
POINT_DATA 1909
SCALARS phi float 1
LOOKUP_TABLE default
VECTORS Displacement float
0 0 0
0 0 0
0 -0.000905903 0
0 0 0
0 -0.000371714 0
0 0 0
0 0.00143193 0
0 0 0
0 0 0
0 0.00437631 0
0.0083126 -0.00039236 0
0 0 0
0 0.00836948 0
0.0159291 0.00284093 0
0 0 0
0.0111547 -0.000390378 0
0 0.0132151 0
0 0 0
0.0212147 0.00941615 0
0.0141666 -0.000449018 0
0 0 0
0.0243302 0.0180884 0
0 0 0
0.0172643 -0.000601714 0
0 0 0
0.032447 0.00198047 0
0.0202779 -0.000831405 0
0.0387499 0.00442542 0
0 0 0
0.0347692 0.00180367 0
0.0433487 0.00758483 0
0.0465976 0.0112154 0
0.0369469 0.0016206 0
0.0489518 0.0150296 0
0 0 0
0.0390809 0.00134477 0
0.0504476 0.0189717 0
0.0230606 -0.00111765 0
0.0410997 0.00105184 0
0.0513026 0.0228563 0
0 0 0
0.043008 0.000711702 0
0.0559318 0.00626036 0
0.0447973 0.000352683 0
0.0620688 0.012065 0
0.0255036 -0.00145044 0
0 0 0
0.0602451 0.00457768 0
0.065174 0.0187029 0
0.0464608 -3.7337e-05 0
0.0655543 0.0253394 0
0.0479934 -0.000446916 0
0 0 0
0.0636687 0.00308457 0
0.0493972 -0.00088101 0
0.02752 -0.00183113 0
0.0665305 0.00157413 0
0.050662 -0.00133933 0
0 0 0
0.0784271 0.00666452 0
0.0807077 0.00827631 0
0.0517948 -0.00181929 0
0.0797863 0.00558761 0
0.0829764 0.0101057 0
0.0688897 -8.99846e-06 0
0.0843415 0.0118448 0
0.0840118 0.00917273 0
0.0854026 0.013919 0
0.0857328 0.0133191 0
0.0809726 0.00454986 0
0.0856106 0.0103624 0
0.0855736 0.0158285 0
0.0860393 0.012842 0
0.0849219 0.00824623 0
0.0858855 0.0149868 0
0.0832385 0.00603304 0
0.086336 0.0123803 0
0.0853182 0.0179552 0
0.0863239 0.0142476 0
0.0854674 0.0179962 0
0.0943441 0.0211798 0
0.086614 0.0119652 0
0.0856372 0.0179949 0
0.0984144 0.0224122 0
0.0940499 0.0209422 0
0.0858764 0.0178468 0
0.0981418 0.0222242 0
0.0989102 0.0222735 0
0.097823 0.0219659 0
0.0861245 0.0176892 0
0.0973425 0.0215408 0
0.0989063 0.0220224 0
0.093665 0.0202878 0
0.098695 0.0218046 0
0.0869026 0.0135481 0
0.0869109 0.0115545 0
0.0864662 0.0173325 0
0.0988934 0.0217935 0
0.0968639 0.0211063 0
0.0988798 0.0215661 0
0.0989628 0.0216709 0
0.0867974 0.0169837 0
0.0981788 0.0210706 0
0.05278 -0.00233219 0
0.0962987 0.0204483 0
0.0988277 0.0212419 0
0.0932693 0.019196 0
0.0989248 0.0212182 0
0.0987388 0.0208978 0
0.0989421 0.0212962 0
0.0958102 0.0198295 0
0.0290213 -0.00226795 0
0.0872384 0.0164317 0
0.0989214 0.0210652 0
0.0872034 0.0111882 0
0.0857705 0.00738791 0
0 0 0
0.0985545 0.0203789 0
0.0988987 0.0208306 0
0.0973863 0.0199339 0
0.0867074 0.00908434 0
0.0988591 0.0205225 0
0.0876158 0.0128348 0
0.0952915 0.0189704 0
0.0988618 0.0204765 0
0.0876477 0.0159222 0
0.0989617 0.0207601 0
0.0982979 0.0198517 0
0.0988305 0.0201237 0
0.0929577 0.0177314 0
0.0989145 0.020279 0
0.0948866 0.0182081 0
0.0986722 0.0195072 0
0.0979113 0.019099 0
0.0987824 0.019622 0
0.0875585 0.0108213 0
0.0990013 0.0202126 0
0.088168 0.0152459 0
0.0964255 0.0183851 0
0.0989733 0.0199707 0
0.0988447 0.0195814 0
0.0987396 0.019139 0
0.0989459 0.019732 0
0.0974942 0.0183914 0
0.0820994 0.00352286 0
0.0944835 0.0172368 0
0.0989069 0.019388 0
0.0986542 0.0184968 0
0.0886352 0.0146301 0
0.0988685 0.0190546 0
0.0982234 0.0181742 0
0.0990726 0.0194558 0
0.0987566 0.0186378 0
0.0927999 0.0160475 0
0.0884498 0.0120635 0
0.0879136 0.0104753 0
0.0969626 0.0174653 0
0.0988173 0.0185899 0
0.0942309 0.0164063 0
0.0990232 0.0189967 0
0.0985401 0.0178935 0
0.0954828 0.0165808 0
0.0987695 0.0181509 0
0.0989538 0.0183583 0
0.0892118 0.0139215 0
0.0991542 0.0187334 0
0.0964895 0.0166424 0
0.0986443 0.0174541 0
0.0991308 0.0185138 0
0.0983335 0.0171194 0
0.0987095 0.0175636 0
0.0991081 0.0183005 0
0.0865468 0.00657315 0
0.0939962 0.015432 0
0.0974695 0.0165743 0
0.0883388 0.0100971 0
0.0990762 0.0179962 0
0.0988617 0.0175155 0
0.0986628 0.0170251 0
0.099046 0.017704 0
0.0980712 0.0164136 0
0.0897237 0.0132758 0
0.0959661 0.015652 0
0.0928433 0.0143358 0
0.0990047 0.0173015 0
0.0992902 0.0178087 0
0.0878067 0.00797344 0
0.0939151 0.0146114 0
0.0986009 0.0163443 0
0.0989663 0.0169217 0
0.0894028 0.0112023 0
0.0984209 0.0160827 0
0.0992507 0.0174149 0
0.0987527 0.0164728 0
0.0947929 0.0147376 0
0.088764 0.00972718 0
0.0976964 0.0155533 0
0.0955943 0.0148152 0
0.0989151 0.0164184 0
0.099197 0.0168755 0
0.0985452 0.0157397 0
0.0903678 0.0126225 0
0.0965803 0.0148505 0
0.0994326 0.0169608 0
0.0988671 0.0159557 0
0.0994162 0.01678 0
0.0938593 0.0137261 0
0.099128 0.0161691 0
0.0994003 0.0166044 0
0.0973279 0.0148042 0
0.0993779 0.0163552 0
0.0986474 0.0152835 0
0.0984439 0.015023 0
0.0988093 0.0153715 0
0.0993563 0.0161161 0
0.0952563 0.0138909 0
0.089258 0.00929449 0
0.0979672 0.0146258 0
0.090955 0.0120214 0
0.0872966 0.00578748 0
0.0993268 0.0157879 0
0.0990469 0.0153001 0
0.0931479 0.0127619 0
0.0853103 0.00401365 0
0.0987629 0.0148581 0
0.0992993 0.0154796 0
0.0939396 0.0129665 0
0.0996577 0.0159375 0
0.0983179 0.0143991 0
0.0969079 0.013936 0
0.0831186 0.00248143 0
0.0945207 0.0130431 0
0.0996336 0.0156243 0
0.0992639 0.0150735 0
0.0904992 0.0102191 0
0.0950977 0.0131064 0
0.0897485 0.00886269 0
0.0987137 0.0142444 0
0.0996019 0.0152002 0
0.0992345 0.0147054 0
0.0985381 0.014049 0
0.0958995 0.0131678 0
0.0989639 0.0143226 0
0.0916887 0.0113939 0
0.0981259 0.0136643 0
0.0889187 0.00687776 0
0.0966009 0.0131812 0
0.0995636 0.0146539 0
0.099201 0.0142443 0
0.099869 0.0150232 0
0.0940698 0.0121299 0
0.0707361 -0.00168419 0
0.0986837 0.0137116 0
0.0998605 0.0148858 0
0.0998528 0.0147539 0
0.0973697 0.0131187 0
0.0998428 0.0145677 0
0.0991773 0.013836 0
0.0950302 0.0122249 0
0.0998343 0.0143918 0
0.0995224 0.0139967 0
0.0903125 0.00834121 0
0.0979148 0.0129916 0
0.0880147 0.00500959 0
0.0998237 0.0141526 0
0.098903 0.0132769 0
0.0536254 -0.00286458 0
0.0923666 0.0107709 0
0.0986454 0.0130644 0
0.0963351 0.0122781 0
0.0998158 0.0139309 0
0.0937574 0.0112238 0
0.0991562 0.0133308 0
0.0942819 0.0113431 0
0.0983542 0.012738 0
0.0998082 0.0136395 0
0.0946828 0.0113773 0
0.10026 0.0140124 0
0.0994884 0.0132395 0
0.0950841 0.0114056 0
0.100251 0.0137921 0
0.0998031 0.013369 0
0.0991393 0.0128622 0
0.091774 0.00903223 0
0.0976754 0.0121405 0
0.0986043 0.0124545 0
0.0956621 0.0114337 0
0.0908636 0.00781442 0
0.10024 0.0135002 0
0.0998016 0.0130193 0
0.0962074 0.0114385 0
0.0931705 0.0100059 0
0.10023 0.0131226 0
0.0991247 0.0122595 0
0.0968987 0.0114022 0
0.0998009 0.012684 0
0.0988551 0.0120592 0
0.0840666 0.0014197 0
0.0945742 0.010394 0
0.0994674 0.0123272 0
0.0900355 0.00571369 0
0.10061 0.0131532 0
0.088709 0.00421513 0
0.0985349 0.0116711 0
0.0974788 0.0113204 0
0.100612 0.0130643 0
0.0952446 0.0104191 0
0.100226 0.0126356 0
0.100614 0.0129776 0
0.0998004 0.0122425 0
0.100617 0.0128553 0
0.0914951 0.00716755 0
0.0991099 0.0116751 0
0.100621 0.0127358 0
0.0980614 0.011135 0
0.0961719 0.010407 0
0.100627 0.0125687 0
0.0998006 0.0118112 0
0.100632 0.0124046 0
0.0939064 0.0092248 0
0.100231 0.0119977 0
0.0946096 0.00942504 0
0.0984531 0.0109015 0
0.0949143 0.00946901 0
0.100638 0.0121777 0
0.0951903 0.00946682 0
0.097318 0.0102845 0
0.0994559 0.0111701 0
0.0990901 0.010918 0
0.100643 0.0119539 0
0.0954671 0.00946121 0
0.0998032 0.0112405 0
0.101169 0.0122424 0
0.0920958 0.0065086 0
0.0958679 0.00944683 0
0.0987888 0.0105368 0
0.101171 0.0120837 0
0.0931995 0.00750023 0
0.100651 0.0116465 0
0.0893641 0.00341239 0
0.096253 0.00942087 0
0.0870204 0.00194044 0
0.100246 0.0111559 0
0.101174 0.011861 0
0.10066 0.0113434 0
0.0998081 0.0106816 0
0.0967768 0.00936512 0
0.0983584 0.00991281 0
0.0990762 0.0101745 0
0.101181 0.0115497 0
0.0947398 0.00822401 0
0.0972599 0.00928638 0
0.0911375 0.00442421 0
0.100673 0.0109324 0
0.0953631 0.00832711 0
0.0849016 0.000339942 0
0.101193 0.0111187 0
0.0978307 0.00913347 0
0.0958108 0.00828928 0
0.101674 0.0114005 0
0.0927722 0.00569421 0
0.0998197 0.0099533 0
0.099456 0.00969819 0
0.100688 0.0105279 0
0.101675 0.0113242 0
0.101677 0.0112484 0
0.100277 0.0100588 0
0.10168 0.0111411 0
0.0964587 0.00821615 0
0.0982849 0.00894109 0
0.0990637 0.00922625 0
0.101683 0.0110344 0
0.101216 0.0105312 0
0.089988 0.00257677 0
0 0 0
0.101688 0.0108841 0
0.100712 0.00998992 0
0.101693 0.0107348 0
0.0998376 0.00923836 0
0.0954758 0.00719817 0
0.0543116 -0.00344309 0
0.0987219 0.0086253 0
0.0973062 0.00805722 0
0.0956585 0.00720428 0
0.1017 0.0105262 0
0.0958493 0.00720983 0
0.0960245 0.00717779 0
0.101709 0.0103193 0
0.100739 0.00946021 0
0.0962062 0.0071464 0
0.0933934 0.00486086 0
0.101254 0.00974446 0
0.0990631 0.00829072 0
0.0964783 0.00710065 0
0.101722 0.0100339 0
0.0982694 0.00772967 0
0.0967482 0.00705056 0
0.10229 0.010386 0
0.0946767 0.00550106 0
0.100342 0.0086519 0
0.0998718 0.00832506 0
0.101736 0.00975111 0
0.102292 0.0102362 0
0.0971158 0.00696785 0
0.100779 0.00876837 0
0.0921961 0.00295843 0
0.102297 0.0100277 0
0.0995006 0.00784956 0
0.0905581 0.00172462 0
0.097471 0.0068752 0
0.101758 0.00936719 0
0.085641 -0.000762018 0
0.102304 0.00973703 0
0.0962352 0.00590065 0
0.101317 0.00870865 0
0.0979226 0.00672325 0
0.101781 0.00898672 0
0.0964573 0.0058602 0
0.0990935 0.00712265 0
0.100826 0.00808748 0
0.0720474 -0.00347461 0
0.0940699 0.00383221 0
0.0999248 0.00742843 0
0.102318 0.00933442 0
0.0967541 0.00578227 0
0.0983279 0.0065486 0
0.101814 0.00847823 0
0.0971869 0.00566119 0
0.102779 0.00940973 0
0.0884165 -0.000198732 0
0.102781 0.00933468 0
0.0987687 0.00626771 0
0.102342 0.00878252 0
0.102782 0.00926015 0
0.102785 0.00915631 0
0.0910891 0.000827456 0
0.10089 0.00721613 0
0.102788 0.00905304 0
0.100459 0.00688824 0
0.101848 0.00797418 0
0.0977762 0.00546134 0
0.102793 0.0089091 0
0.0991709 0.00598311 0
0.101413 0.00736949 0
0.102798 0.00876574 0
0.100003 0.00631415 0
0.0968441 0.00455878 0
0.0969332 0.00453081 0
0.102806 0.00856671 0
0.102381 0.00803532 0
0.0946624 0.00277925 0
0.0970214 0.00450226 0
0.0971499 0.00445872 0
0.102814 0.00836825 0
0.101895 0.00731187 0
0.0985109 0.00512479 0
0.0972767 0.00441371 0
0.0996505 0.00559943 0
0.100957 0.00635676 0
0.0974586 0.00434571 0
0.0931686 0.0012641 0
0.102825 0.00809497 0
0.0862669 -0.00188598 0
0.0976375 0.00427469 0
0.102837 0.00782219 0
0.0978863 0.00416812 0
0.0960465 0.00292113 0
0.0299002 -0.00276807 0
0.101942 0.0066542 0
0.0915544 -8.92543e-05 0
0.100094 0.00521805 0
0.103271 0.0082155 0
0.102438 0.00703804 0
0.0981274 0.00405575 0
0.102855 0.00745082 0
0.0993098 0.00459221 0
0.103273 0.00805921 0
0.0548439 -0.00403551 0
0.0984453 0.00388933 0
0.103276 0.00784694 0
0.101537 0.00566249 0
0.102873 0.00707974 0
0.101041 0.00527049 0
0.103281 0.00755524 0
0.0952577 0.00148577 0
0.0987448 0.00371453 0
0.0974362 0.002898 0
0.101999 0.00580227 0
0.100629 0.00470905 0
0.0975817 0.0028331 0
0.102896 0.0065814 0
0.10329 0.00715337 0
0.0977929 0.00273376 0
0.0991226 0.00346536 0
0.102511 0.00572451 0
0.100216 0.00385045 0
0.09809 0.00258229 0
0.0919709 -0.0010626 0
0.102919 0.00608266 0
0.0994741 0.00320838 0
0.102048 0.0049523 0
0.103304 0.00660181 0
0.101113 0.00418904 0
0.0867948 -0.00304402 0
0.103547 0.00701045 0
0.0984926 0.00235218 0
0.103548 0.00692711 0
0.10355 0.00684414 0
0.103552 0.00673237 0
0.102947 0.00542235 0
0.0894454 -0.00244746 0
0.0939954 -0.000713206 0
0.0999182 0.00284988 0
0.103554 0.0066209 0
0.0957353 0.000166839 0
0.103324 0.00585085 0
0.103557 0.00646901 0
0.0990176 0.00200642 0
0.103559 0.00631728 0
0.0978682 0.00121874 0
0.0979326 0.00118317 0
0.0979965 0.00114725 0
0.102102 0.00386226 0
0.101663 0.00349195 0
0.103563 0.00610973 0
0.10297 0.00475996 0
0.100326 0.00247814 0
0.0980887 0.00109365 0
0.09818 0.00103935 0
0.103568 0.00590207 0
0.0923137 -0.0020554 0
0.101195 0.00281916 0
0.102585 0.00401225 0
0.0983099 0.000959355 0
0.103573 0.00561871 0
0.0984375 0.00087798 0
0.103348 0.00483899 0
0.0996765 0.00149754 0
0.0986153 0.000759701 0
0.103578 0.00533477 0
0.100815 0.00196746 0
0.0970568 -0.000337976 0
0.102995 0.00389532 0
0.0987889 0.000638971 0
0 0 0
0.102137 0.00276615 0
0.103584 0.00495016 0
0.0990235 0.000465673 0
0.0872037 -0.0042273 0
0.103655 0.00548913 0
0.0727943 -0.00540168 0
0.103589 0.00456416 0
0.0961542 -0.00142673 0
0.0992512 0.000287966 0
0.103657 0.00530309 0
0.101252 0.00143667 0
0.055201 -0.00469274 0
0.103009 0.00302541 0
0.103659 0.00505919 0
0.0925961 -0.00311669 0
0.100451 0.000761107 0
0.103369 0.00349181 0
0.0995511 3.62684e-05 0
0.103594 0.00404685 0
0.0982247 -0.000792547 0
0.103661 0.00473315 0
0.0983328 -0.000868134 0
0.0984903 -0.00098169 0
0.0998367 -0.000224155 0
0.102164 0.00137443 0
0.103597 0.00352696 0
0.102627 0.00179739 0
0.103663 0.00429293 0
0.0945927 -0.00302755 0
0.0987134 -0.0011505 0
0.101745 0.000718308 0
0.103015 0.00190641 0
0.100198 -0.000588498 0
0.103665 0.00369712 0
0.103597 0.00283932 0
0.0990202 -0.00139917 0
0.101298 -0.000291619 0
0.0927996 -0.00419525 0
0.0900695 -0.00481844 0
0.096429 -0.00303863 0
0.103367 0.00172188 0
0.100532 -0.000966622 0
0.0875057 -0.00544516 0
0.103492 0.0038826 0
0.0994272 -0.00176243 0
0.103592 0.00214753 0
0.103493 0.00377767 0
0.103663 0.00289345 0
0.102163 -3.20429e-05 0
0.103494 0.00367313 0
0.103003 0.000777818 0
0.103495 0.00353844 0
0.103496 0.00340409 0
0.103496 0.0032273 0
0.0984274 -0.00280856 0
0.100937 -0.00148758 0
0.0984757 -0.00284834 0
0.0985236 -0.00288834 0
0.103497 0.00305075 0
0.0985935 -0.0029477 0
0.0999406 -0.00228953 0
0.103577 0.00124633 0
0.0986627 -0.00300754 0
0.103497 0.00281562 0
0.0987617 -0.00309515 0
0.103651 0.00181791 0
0.103497 0.0025805 0
0.0988593 -0.00318378 0
0.0989957 -0.00331178 0
0.092929 -0.00535409 0
0.101297 -0.0020302 0
0.103496 0.00226608 0
0.102587 -0.00103376 0
0.102965 -0.00064822 0
0.0991293 -0.00344187 0
0.103552 0.000339276 0
0.103494 0.00195133 0
0.102127 -0.00177936 0
0.0975416 -0.00429048 0
0.0993113 -0.00362734 0
0.103307 -0.000567449 0
0.100554 -0.00304798 0
0.103489 0.00153138 0
0.0965823 -0.00494322 0
0.0994871 -0.00381683 0
0.0876827 -0.00668825 0
0.103618 0.000395027 0
0.0553831 -0.00534864 0
0.103483 0.00111056 0
0.101704 -0.00276609 0
0.094862 -0.00572277 0
0.0997189 -0.00408359 0
0.103506 -0.000821905 0
0.102978 0.00183034 0
0.102899 -0.00208552 0
0.103472 0.000553198 0
0.102979 0.00158741 0
0.0999394 -0.0043573 0
0.0929754 -0.0065266 0
0.10298 0.0012832 0
0.0984858 -0.00518218 0
0.0985692 -0.00526553 0
0.103457 -5.71252e-06 0
0.102042 -0.00353512 0
0.101227 -0.00412879 0
0.102979 0.000892458 0
0.0986902 -0.00538999 0
0.100219 -0.00473765 0
0.103443 -0.00198973 0
0.0988612 -0.0055736 0
0.0902766 -0.00730423 0
0.103541 -0.00145958 0
0.102976 0.000382059 0
0.103433 -0.000737696 0
0.100479 -0.0051301 0
0.0990955 -0.00584153 0
0.0729475 -0.00748179 0
0.102778 -0.0038588 0
0.0965659 -0.00685511 0
0.102967 -0.00029034 0
0.103133 -0.00346832 0
0.0877463 -0.00796017 0
0.103402 -0.00147183 0
0.102378 -0.00456106 0
0.099405 -0.00622883 0
0.100791 -0.00566806 0
0.0929347 -0.00778975 0
0.103339 -0.00345471 0
0.102948 -0.00117732 0
0 0 0
0.103353 -0.00241953 0
0.101874 -0.00565193 0
0.102161 -0.000369106 0
0.0997963 -0.00678382 0
0.101068 -0.0062259 0
0.102162 -0.000509662 0
0.102162 -0.000649779 0
0.0300315 -0.00332534 0
0.0983517 -0.00754845 0
0.102162 -0.000821496 0
0.103383 -0.00383269 0
0.0983883 -0.00759178 0
0.0984246 -0.00763529 0
0.102162 -0.000992772 0
0.10261 -0.00563598 0
0.0984779 -0.00769976 0
0.102909 -0.00234195 0
0.103294 -0.00336941 0
0.102161 -0.0012085 0
0.0985307 -0.00776463 0
0.103207 -0.00492411 0
0.0986062 -0.00785935 0
0.102159 -0.00142379 0
0.0986805 -0.0079549 0
0.101375 -0.00697943 0
0.102157 -0.00170019 0
0.10026 -0.00757267 0
0.0987843 -0.00809244 0
0.0947009 -0.00882385 0
0.055367 -0.00609277 0
0.102153 -0.00197617 0
0.0928078 -0.0090618 0
0.0988856 -0.0082316 0
0.087683 -0.00925348 0
0.102147 -0.0023344 0
0.0990233 -0.00842914 0
0.103203 -0.0045746 0
0.0963621 -0.00906113 0
0.0973086 -0.00891981 0
0.102139 -0.00269223 0
0.0991562 -0.00862977 0
0.102834 -0.0038566 0
0.101624 -0.00776388 0
0.102127 -0.00315835 0
0.102758 -0.00704454 0
0.0993309 -0.00891069 0
0.103005 -0.00672452 0
0.0900732 -0.00988746 0
0.100762 -0.0086845 0
0.102343 -0.00777026 0
0.102112 -0.00362408 0
0.0994965 -0.00919742 0
0.103094 -0.00578047 0
0.103084 -0.00680158 0
0.102089 -0.00422908 0
0.0997052 -0.00959351 0
0.101858 -0.00880647 0
0.0925786 -0.0104335 0
0.100824 -0.00313721 0
0.102697 -0.00579929 0
0.0979727 -0.0102622 0
0.102061 -0.00483356 0
0.100825 -0.0034665 0
0.0980366 -0.0103519 0
0.0998971 -0.00999981 0
0.0981289 -0.0104853 0
0.0875061 -0.0105684 0
0.100825 -0.00385899 0
0.102933 -0.00728019 0
0.102758 -0.00852157 0
0.0982587 -0.0106813 0
0.102019 -0.00561266 0
0.100822 -0.00434015 0
0.100125 -0.0105535 0
0.101223 -0.0102359 0
0.0984362 -0.0109655 0
0.0959607 -0.011263 0
0.102001 -0.00989446 0
0.100813 -0.00494314 0
0.101969 -0.0063907 0
0.0986696 -0.0113731 0
0.100324 -0.0111242 0
0.102744 -0.00877623 0
0.100796 -0.0057098 0
0.0922622 -0.0118086 0
0.10246 -0.00824676 0
0.101895 -0.00738154 0
0.0989613 -0.0119519 0
0.0551512 -0.00680193 0
0.0724821 -0.0097222 0
0.1024 -0.0106676 0
0.100538 -0.0118909 0
0.0939985 -0.0123365 0
0.100763 -0.00669119 0
0.102561 -0.0104176 0
0.102055 -0.0113141 0
0.0872074 -0.0118978 0
0.10181 -0.00836987 0
0.0993012 -0.0127659 0
0.102474 -0.0105953 0
0.0973613 -0.0129468 0
0.0991748 -0.00609651 0
0.0973891 -0.0129929 0
0.0974167 -0.0130391 0
0.100702 -0.0126844 0
0.0894783 -0.0125468 0
0.0991751 -0.00628814 0
0.101503 -0.0123732 0
0.0974575 -0.0131075 0
0.100703 -0.00794731 0
0.0974979 -0.0131763 0
0.0991749 -0.00647936 0
0.0975557 -0.0132764 0
0.0991739 -0.00670221 0
0.0976125 -0.0133772 0
0.101686 -0.00960917 0
0.0991723 -0.0069246 0
0.0976916 -0.0135219 0
0.0991696 -0.00719146 0
0.0977686 -0.0136679 0
0.0918241 -0.01329 0
0.099166 -0.00745775 0
0.0953004 -0.0137423 0
0.101975 -0.0127962 0
0.0978728 -0.0138745 0
0.102063 -0.0112637 0
0.0991603 -0.00778495 0
0.0996561 -0.0139003 0
0.0979729 -0.0140836 0
0.10084 -0.0137335 0
0.100598 -0.0095452 0
0.0991534 -0.00811144 0
0.101543 -0.0108428 0
0.102161 -0.012402 0
0.0961141 -0.0141623 0
0 0 0
0.0981037 -0.0143752 0
0.0991428 -0.00851947 0
0.0868006 -0.0132417 0
0.0982266 -0.0146714 0
0.0991302 -0.00892654 0
0.0991114 -0.00944028 0
0.09838 -0.0150786 0
0.100899 -0.0148225 0
0.101342 -0.0123614 0
0.0990893 -0.00995262 0
0.100421 -0.0115549 0
0.098519 -0.0154942 0
0.099955 -0.0154648 0
0.1017 -0.0146896 0
0.0912986 -0.0147693 0
0.0990568 -0.0106011 0
0.101731 -0.0145451 0
0.101389 -0.0152688 0
0.0547055 -0.00761953 0
0.098681 -0.0160573 0
0.0964162 -0.0159353 0
0.0990192 -0.0112474 0
0.0964666 -0.0160292 0
0.101112 -0.0138684 0
0.0965386 -0.0161687 0
0.0968693 -0.00971966 0
0.100864 -0.0162361 0
0.101429 -0.014889 0
0.0966394 -0.0163729 0
0.0988177 -0.0166345 0
0.0989646 -0.012063 0
0.0968699 -0.0101672 0
0.0944245 -0.0161997 0
0.086285 -0.014591 0
0.0967764 -0.0166679 0
0.0968676 -0.010676 0
0.0885151 -0.0152608 0
0.100132 -0.0140428 0
0.092636 -0.0162425 0
0.098902 -0.0128749 0
0.096955 -0.0170887 0
0.0989576 -0.0174051 0
0.0968608 -0.0112703 0
0.10124 -0.0166617 0
0.100073 -0.0175957 0
0.100797 -0.0156844 0
0.0968468 -0.0119815 0
0.0971754 -0.0176818 0
0.0906276 -0.0163574 0
0.10071 -0.0177042 0
0.0988123 -0.0138909 0
0.0990549 -0.0181981 0
0.0713784 -0.0121018 0
0.0968212 -0.0128487 0
0.0987104 -0.0149008 0
0.0974266 -0.0185087 0
0.0293073 -0.00390485 0
0.100442 -0.0174791 0
0.0967765 -0.0139192 0
0.0856704 -0.0159472 0
0.0991176 -0.0192402 0
0.0996769 -0.0170613 0
0.0985672 -0.0161489 0
0.100587 -0.0191059 0
0.0952207 -0.0188615 0
0.0952422 -0.0189092 0
0.0952636 -0.0189571 0
0.0952959 -0.0190279 0
0.100366 -0.0195703 0
0.0953277 -0.0190989 0
0.0976772 -0.0196491 0
0.100457 -0.0191204 0
0.0953737 -0.0192022 0
0.0967013 -0.0152479 0
0.0954188 -0.0193061 0
0.0954816 -0.0194548 0
0.0932308 -0.0188916 0
0.0898716 -0.0179357 0
0.0942763 -0.0135549 0
0.099112 -0.0203154 0
0.0955426 -0.0196047 0
0.0540465 -0.00834587 0
0.0984058 -0.0173865 0
0.0942762 -0.0138135 0
0.0998152 -0.0204511 0
0.0956248 -0.0198161 0
0.0942753 -0.0140717 0
0.0999665 -0.0195913 0
0.0957035 -0.0200295 0
0.0942731 -0.0143591 0
0.0942698 -0.014646 0
0.0958057 -0.0203261 0
0.0965776 -0.0168948 0