# vtk DataFile Version 3.0
File generated from DClib
ASCII

DATASET UNSTRUCTURED_GRID
POINTS 922 float
50 0 0 
50 1.66667 0 
47.9167 0 0 
50 3.33333 0 
45.8333 0 0 
50 5 0 
43.75 0 0 
50 6.66667 0 
43 2 0 
41.6667 0 0 
50 8.33333 0 
43 4.66667 0 
50 10 0 
43 7.33333 0 
39.7917 2 0 
39.5833 0 0 
43 10 0 
37.5 0 0 
36.5833 2 0 
36 4 0 
35.4167 0 0 
36 5 0 
36 6 0 
34.875 4 0 
36 7 0 
36 8 0 
36 9 0 
33.3333 0 0 
33.75 4 0 
33.375 2 0 
36 10 0 
32.625 4 0 
33 6 0 
33 7.38776 0 
31.25 0 0 
31.5 4 0 
33 8.72989 0 
31.25 6 0 
33 10 0 
30.1667 2 0 
30.375 4 0 
29.1667 0 0 
29.25 4 0 
29.5 6 0 
30 8 0 
30 8.38776 0 
30 8.77551 0 
30 9.11765 0 
29.375 8 0 
30 9.45978 0 
28.125 4 0 
30 9.72989 0 
29.5436 8.77551 0 
29.7872 9.45978 0 
30 10 0 
29.9616 10.0384 0 
29.9232 10.0768 0 
29.8781 10 0 
29.7038 9.72989 0 
29.5732 9.45978 0 
29.8635 10.1365 0 
29.8013 10.0768 0 
29.7562 10 0 
29.3407 9.11765 0 
29.8038 10.1962 0 
29.7179 10.0384 0 
29.0879 8.77551 0 
29.6796 10.0768 0 
28.75 8 0 
29.5896 10 0 
29.682 10.1962 0 
29.3212 9.45978 0 
29.7137 10.2863 0 
28.8513 8.38776 0 
29.62 10.1365 0 
29.5133 10.0768 0 
29.5605 10.1962 0 
29.318 9.72989 0 
29.6237 10.3763 0 
29.423 10 0 
27.0833 0 0 
29.3851 10.0384 0 
29.4708 10.2863 0 
29.0681 9.45978 0 
29.5022 10.3763 0 
29.3471 10.0768 0 
29.3947 10.1962 0 
29.4922 10.5078 0 
27.75 6 0 
29.2882 10.1365 0 
29.2009 10 0 
29.3811 10.3763 0 
28.6181 8.77551 0 
26.9583 2 0 
29.2293 10.1962 0 
29.1257 10.0768 0 
29.3606 10.6394 0 
29.2162 10.3763 0 
28.6273 9.11765 0 
28.7679 9.45978 0 
29.1405 10.2863 0 
29.25 10.5078 0 
28.9787 10 0 
28.125 8 0 
28.8217 9.72989 0 
29.2395 10.6394 0 
28.9416 10.0384 0 
29.009 10.1962 0 
27 4 0 
29.0518 10.3763 0 
28.9045 10.0768 0 
29.119 10.6394 0 
28.8468 10.1365 0 
29.1744 10.8256 0 
28.4666 9.45978 0 
28.7892 10.1962 0 
28.69 10 0 
28.1489 8.77551 0 
28.9223 10.5078 0 
28.8333 10.3763 0 
28.9555 10.6394 0 
28.617 10.0768 0 
28.7024 10.2863 0 
28.9337 10.8256 0 
28.9882 11.0118 0 
28.7928 10.6394 0 
28.6156 10.3763 0 
28.5038 10.1962 0 
28.4012 10 0 
27.6992 8.38776 0 
28.8679 11.0118 0 
28.1088 9.45978 0 
28.3655 10.0384 0 
28.1935 9.72989 0 
27.5 8 0 
28.3298 10.0768 0 
28.5771 10.6394 0 
28.7485 11.0118 0 
28.489 10.5078 0 
27.8468 9.11765 0 
28.6098 10.8256 0 
28.2744 10.1365 0 
27.6621 8.77551 0 
28.3334 10.3763 0 
28.219 10.1962 0 
28.7333 11.2667 0 
28.5871 11.0118 0 
28.3626 10.6394 0 
28.0354 10 0 
28.1356 10.2863 0 
27.75 9.45978 0 
28.427 11.0118 0 
27.9662 10.0768 0 
28.0523 10.3763 0 
28.4949 11.2667 0 
28.184 10.8256 0 
28.0852 10.6394 0 
27.8587 10.1962 0 
28.2155 11.0118 0 
28.4783 11.5217 0 
27.9307 10.5078 0 
27.1759 8.77551 0 
25.875 4 0 
27.6697 10 0 
26.875 8 0 
27.6363 10.0384 0 
28.3594 11.5217 0 
27.6029 10.0768 0 
28.177 11.2667 0 
27.3262 9.45978 0 
27.4134 9.72989 0 
28.0057 11.0118 0 
27.6971 10.3763 0 
27.8094 10.6394 0 
28.2416 11.5217 0 
27.551 10.1365 0 
27.4992 10.1962 0 
26 6 0 
26.9863 9.11765 0 
28.0837 11.5217 0 
27.4211 10.2863 0 
27.7352 11.0118 0 
27.638 10.8256 0 
28.141 11.859 0 
27.2186 10 0 
27.9274 11.5217 0 
26.5417 8.38776 0 
27.3432 10.3763 0 
27.4616 10.6394 0 
26.6684 8.77551 0 
27.7621 11.2667 0 
26.9013 9.45978 0 
27.155 10.0768 0 
25 0 0 
26.25 8 0 
27.9066 11.859 0 
27.2294 10.5078 0 
27.467 11.0118 0 
27.7222 11.5217 0 
27.0563 10.1962 0 
27.1158 10.6394 0 
27.5191 11.5217 0 
26.7674 10 0 
26.9078 10.3763 0 
27.8036 12.1964 0 
26.7374 10.0384 0 
27.5976 11.859 0 
26.7074 10.0768 0 
27.1297 11.0118 0 
27.2334 11.2667 0 
26.1616 8.77551 0 
26.4044 9.45978 0 
27.6871 12.1964 0 
26.6608 10.1365 0 
26.9553 10.8256 0 
26.4658 9.72989 0 
27.2584 11.5217 0 
26.6142 10.1962 0 
27.5718 12.1964 0 
24.75 4 0 
26.544 10.2863 0 
26.6911 10.6394 0 
26.0333 9.11765 0 
25.625 8 0 
27.4193 12.1964 0 
26.7951 11.0118 0 
27.1983 11.859 0 
26.4737 10.3763 0 
27.0006 11.5217 0 
26.2261 10 0 
27.2684 12.1964 0 
26.3711 10.5078 0 
26.1706 10.0768 0 
25.9068 9.45978 0 
25.6301 8.77551 0 
27.3729 12.6271 0 
27.0723 12.1964 0 
26.5764 11.2667 0 
26.0842 10.1962 0 
26.2685 10.6394 0 
25.377 8.38776 0 
26.6777 11.5217 0 
26.3853 11.0118 0 
27.1446 12.6271 0 
26.8784 12.1964 0 
26.6935 11.859 0 
25.9539 10.3763 0 
26.1234 10.8256 0 
25 8 0 
25.6847 10 0 
26.3582 11.5217 0 
23.75 2 0 
25.6594 10.0384 0 
26.6314 12.1964 0 
25.634 10.0768 0 
26.8487 12.6271 0 
25.0992 8.77551 0 
25.3333 9.45978 0 
25.9784 11.0118 0 
25.5945 10.1365 0 
24.25 6 0 
25.7632 10.6394 0 
25.5549 10.1962 0 
26.9422 13.0578 0 
25.3422 9.72989 0 
25.4952 10.2863 0 
26.3874 12.1964 0 
26.8294 13.0578 0 
24.9782 9.11765 0 
25.968 11.5217 0 
25.4353 10.3763 0 
23.625 4 0 
26.7177 13.0578 0 
26.4709 12.6271 0 
26.0703 11.859 0 
25.7799 11.2667 0 
25.3477 10.5078 0 
26.5729 13.0578 0 
24.375 8 0 
26.0835 12.1964 0 
25.4927 11.0118 0 
25.0532 10 0 
24.5409 8.77551 0 
25.2597 10.6394 0 
26.4296 13.0578 0 
25.0081 10.0768 0 
24.7595 9.45978 0 
25.5816 11.5217 0 
24.9377 10.1962 0 
22.9167 0 0 
26.246 13.0578 0 
25.7833 12.1964 0 
25.1349 10.8256 0 
25.9977 12.6271 0 
24.2034 8.38776 0 
26.412 13.588 0 
24.831 10.3763 0 
26.0644 13.0578 0 
25.0097 11.0118 0 
25.3193 11.859 0 
26.1925 13.588 0 
25.1215 11.5217 0 
25.4183 12.1964 0 
23.75 8 0 
23.983 8.77551 0 
24.4216 10 0 
25.8356 13.0578 0 
24.6735 10.6394 0 
24.402 10.0384 0 
24.3824 10.0768 0 
24.1101 9.45978 0 
24.8375 11.2667 0 
24.3517 10.1365 0 
24.3209 10.1962 0 
25.4179 12.6271 0 
25.9145 13.588 0 
25.6093 13.0578 0 
24.2742 10.2863 0 
24.0443 9.72989 0 
23.8155 9.11765 0 
25.0573 12.1964 0 
24.2272 10.3763 0 
22.5 4 0 
24.4478 11.0118 0 
24.6646 11.5217 0 
24.158 10.5078 0 
25.3298 13.0578 0 
25.8819 14.1181 0 
25.5653 13.588 0 
24.0881 10.6394 0 
23.3961 8.77551 0 
25.7745 14.1181 0 
23.125 8 0 
23.7058 10 0 
25.6676 14.1181 0 
22.5 6 0 
24.6289 12.1964 0 
25.0535 13.0578 0 
23.9883 10.8256 0 
23.461 9.45978 0 
24.4349 11.859 0 
23.6731 10.0768 0 
25.5335 14.1181 0 
23.019 8.38776 0 
24.7229 12.6271 0 
23.6216 10.1962 0 
24.1341 11.5217 0 
25.1327 13.588 0 
23.8872 11.0118 0 
25.4 14.1181 0 
23.5426 10.3763 0 
24.7194 13.0578 0 
25.233 14.1181 0 
24.204 12.1964 0 
23.7472 11.2667 0 
22.8093 8.77551 0 
23.4243 10.6394 0 
22.5 8 0 
25.0671 14.1181 0 
24.3887 13.0578 0 
23.6052 11.5217 0 
24.6061 13.588 0 
22.9901 10 0 
25.2539 14.7461 0 
22.9769 10.0384 0 
24.8614 14.1181 0 
22.7421 9.45978 0 
22.9637 10.0768 0 
22.9429 10.1365 0 
21.375 4 0 
23.2515 11.0118 0 
22.5457 9.11765 0 
22.922 10.1962 0 
23.7117 12.1964 0 
25.046 14.7461 0 
23.9078 12.6271 0 
22.8899 10.2863 0 
24.6571 14.1181 0 
22.8574 10.3763 0 
22.5862 9.72989 0 
23.998 13.0578 0 
23.4145 11.859 0 
22.8089 10.5078 0 
22.1933 8.77551 0 
20.8333 0 0 
24.791 14.7461 0 
24.4076 14.1181 0 
21.875 8 0 
22.7595 10.6394 0 
23.0055 11.5217 0 
23.9777 13.588 0 
22.6878 10.8256 0 
21.822 8.38776 0 
23.2211 12.1964 0 
23.6104 13.0578 0 
24.1597 14.1181 0 
24.4776 14.7461 0 
22.6143 11.0118 0 
20.5417 2 0 
22.0242 9.45978 0 
22.2027 10 0 
22.1829 10.0768 0 
22.1513 10.1962 0 
24.6259 15.3741 0 
23.8624 14.1181 0 
22.5107 11.2667 0 
21.5771 8.77551 0 
24.5253 15.3741 0 
22.1017 10.3763 0 
24.0946 14.7461 0 
22.9704 12.6271 0 
24.4245 15.3741 0 
21.25 8 0 
23.1626 13.0578 0 
20.75 6 0 
22.404 11.5217 0 
22.0253 10.6394 0 
22.6655 12.1964 0 
24.3035 15.3741 0 
23.5669 14.1181 0 
23.2428 13.588 0 
20.25 4 0 
24.1821 15.3741 0 
22.2583 11.859 0 
21.9095 11.0118 0 
24.0354 15.3741 0 
23.6316 14.7461 0 
21.1769 9.11765 0 
22.7163 13.0578 0 
21.2482 9.45978 0 
23.2196 14.1181 0 
21.4154 10 0 
23.8883 15.3741 0 
21.4085 10.0384 0 
21.4016 10.0768 0 
21.3905 10.1365 0 
20.9332 8.77551 0 
21.3792 10.1962 0 
21.3616 10.2863 0 
22.108 12.1964 0 
20.625 8 0 
23.7106 15.3741 0 
21.3434 10.3763 0 
21.7377 11.5217 0 
21.3158 10.5078 0 
20.6106 8.38776 0 
22.874 14.1181 0 
20.9961 9.72989 0 
23.5323 15.3741 0 
21.2869 10.6394 0 
23.9109 16.0891 0 
23.0804 14.7461 0 
22.2122 13.0578 0 
21.2441 10.8256 0 
22.3997 13.588 0 
23.3184 15.3741 0 
21.91 12.6271 0 
23.7168 16.0891 0 
21.1989 11.0118 0 
22.4765 14.1181 0 
23.1037 15.3741 0 
20.2886 8.77551 0 
21.1336 11.2667 0 
20.4742 9.45978 0 
21.4902 12.1964 0 
23.4886 16.0891 0 
20 8 0 
20.5755 10 0 
20.5672 10.0768 0 
19.125 4 0 
21.0644 11.5217 0 
21.7064 13.0578 0 
20.5533 10.1962 0 
22.8492 15.3741 0 
20.5305 10.3763 0 
23.217 16.0891 0 
18.75 0 0 
22.4362 14.7461 0 
22.0799 14.1181 0 
20.9674 11.859 0 
20.493 10.6394 0 
22.5939 15.3741 0 
22.8917 16.0891 0 
20.4322 11.0118 0 
19 6 0 
20.8648 12.1964 0 
19.7252 9.11765 0 
21.4494 13.588 0 
19.6198 8.77551 0 
23.1959 16.8041 0 
19.375 8 0 
21.1471 13.0578 0 
22.2963 15.3741 0 
21.634 14.1181 0 
23.1028 16.8041 0 
19.3826 8.38776 0 
19.6592 9.45978 0 
23.0087 16.8041 0 
20.3354 11.5217 0 
22.5023 16.0891 0 
19.7357 10 0 
20.7266 12.6271 0 
22.9022 16.8041 0 
19.7337 10.0384 0 
19.7316 10.0768 0 
21.6986 14.7461 0 
19.7282 10.1365 0 
21.9981 15.3741 0 
19.7246 10.1962 0 
22.7943 16.8041 0 
19.7187 10.2863 0 
19.7123 10.3763 0 
19.7021 10.5078 0 
22.6703 16.8041 0 
21.1873 14.1181 0 
19.691 10.6394 0 
20.5814 13.0578 0 
22.5445 16.8041 0 
19.315 9.72989 0 
19.6735 10.8256 0 
20.1866 12.1964 0 
21.6575 15.3741 0 
18 4 0 
18.75 8 0 
22.04 16.0891 0 
18.9498 8.77551 0 
19.6542 11.0118 0 
22.3982 16.8041 0 
19.6249 11.2667 0 
22.2495 16.8041 0 
19.5925 11.5217 0 
20.6965 14.1181 0 
21.3165 15.3741 0 
18.8474 9.45978 0 
20.395 13.588 0 
22.076 16.8041 0 
20.8727 14.7461 0 
19.5453 11.859 0 
18.8678 10 0 
22.415 17.585 0 
18.8667 10.0768 0 
17.3333 2 0 
21.4999 16.0891 0 
21.8995 16.8041 0 
19.969 13.0578 0 
18.8645 10.1962 0 
18.8602 10.3763 0 
19.4934 12.1964 0 
18.125 8 0 
22.2346 17.585 0 
20.9365 15.3741 0 
18.8517 10.6394 0 
21.6943 16.8041 0 
18.261 8.77551 0 
18.1362 8.38776 0 
20.2023 14.1181 0 
22.0344 17.585 0 
18.8358 11.0118 0 
18.2149 9.11765 0 
19.4214 12.6271 0 
21.4858 16.8041 0 
20.5569 15.3741 0 
21.8073 17.585 0 
18.807 11.5217 0 
20.8831 16.0891 0 
17.25 6 0 
21.246 16.8041 0 
19.3437 13.0578 0 
16.6667 0 0 
18.0163 9.45978 0 
16.875 4 0 
[...]
POINT_DATA 922
SCALARS phi float 1
LOOKUP_TABLE default
-1.04343e+06
-14271.9
-612676
-18421.7
-349859
-18598.9
-241256
-21605.2
-1.12072e+06
-115716
-423802
-20805.1
-1.73705e+06
-12011.3
-457789
-54461.5
-1.29482e+06
-15398.3
-268557
-1.27625e+06
2057.78
1632.1
-704.141
-881136
-688.358
-1339.41
-304304
2842.53
-617105
-157357
-863670
-673079
-6385.73
-11900.9
437.101
-504991
-135541
-43763.2
-601702
-104855
-567910
-176.512
-447538
-54197.8
-4869.41
-7698.46
-16854
77.3937
-23031.7
-97.1419
-525453
-10312.6
-54255.5
-68582.9
-32420.5
-26057.3
-4888.89
-91420.9
-87732.7
-36717.4
-22674.1
-9287.11
-271505
-55319.4
-14593.1
-985.834
-60133.6
1608.58
-31390.3
-162971
-21749.5
-30042.2
-41693.9
-98743.5
-7823.46
-209.005
-9518.58
-50802.7
-41971.7
-121349
-1446.86
142.345
-24330.3
-31669.2
-36845.7
180.334
-8777.06
-74883.8
-76585.4
162.655
-79500.2
-13768.7
-62048.1
-98160.1
-611.03
-108.687
-48529.7
-16634.3
-62039.9
-32236.5
-7538.74
-30372.5
-62597.8
-43705.6
-47183.1
-40705.1
-178.34
-1284.11
-437570
-7313.51
-83.8523
-21862.6
-228.764
-70275
-46100.9
-85.2382
-59100.3
-69725.4
-14394
-8478.87
-15708.2
-307.313
-1649.25
-34029.2
-42473.7
-7396.79
-2269.46
-673.044
-77140.7
-108088
-35524.5
-45703.9
-447.288
-67433.6
-53037
-389.782
-15345.2
-20855.9
-9593.34
-74569.6
-17703.1
-841.903
-68954.4
-3086.17
-746.739
-53483.9
-18847.1
-9789.76
-76735.8
-1807.58
-62304.8
-14111.4
-463.837
-1571.67
-33599.2
-16451.2
-12795.3
-1038.98
-14242.6
-33117.1
-5279.88
-74472.1
-519788
-116127
-58338.3
-414.472
-34347.1
-402.806
-25348.7
-60530
-96088.1
-9108.46
-2309.87
-5954.01
-25770.6
-953.458
-937.923
-96299
-85833.7
-27412.6
-2167.33
-25439.5
-17455.7
-49053.8
-114035
-19988.4
-105007
-2147.34
-6550.45
-70633.4
-20212.4
-79667.6
-373.449
-17197.3
-63273.2
-41049.8
-4811.39
-19357.1
-20808.3
-954.073
-4593.56
-16615.1
-161017
-2291.46
-38380.8
-205.79
-35616.7
-199.005
-20713.1
-28889.6
-73414.4
-75456.8
-44402.8
-597.381
-10984.1
-125834
-25202.9
-577.959
-34382.2
-440893
-1528.62
-4999.57
-93074
-65768.6
-40877.4
-11443.5
-32793
-1489.15
-18711.6
-152976
-32443.1
-3620.21
-151.431
-94231.4
-67104.7
-60962.4
-37937.4
-29425.6
-534.323
-3565.18
-93428.1
-44332.4
-11426.5
-57934.8
-29006.2
-32545.2
-1509.63
-7828.67
-66659.8
-196672
-34797
-147019
-23.1504
-31565.9
-21.2822
-54850
-67281
-86423.5
-7714.72
-218.267
-99462.3
-3738.34
-207.208
-54821.4
-146173
-803.68
-25202.5
-66687.1
-94124.7
-30270.9
-779.843
-506045
-53573.7
-50908.2
-50889.7
-16847.1
-2248.23
-64904.7
-66720.4
-49581.6
-8410.52
-180420
-59548.5
-2198.28
-51524.4
2.70154
-100554
-16670
-144.35
-109686
-61821.6
-40355.7
-5420.35
-48201.9
-77106.5
-87577.1
-704.437
-48221.5
-5331.7
-40080.5
-86132
-16921.3
-65393
-62555.2
-57326.4
-210540
-56476.9
-2203.38
-18.2981
-19.0424
-88849
-11480.7
5.68735
7.43859
-53744.4
-82658.2
-43546.7
-211.573
-148231
-87580.6
-47176.3
-201.52
-411496
-5535.41
-11309.3
-1027.28
-47214.1
-83969.4
-77058.5
-1004.56
-49239.9
-102876
-57980.4
-183745
-82567.7
-71687.4
-38778.6
-36675.3
-3086.49
-94473.1
-22145.2
-70.0131
-99868.7
-59144.3
-73347.1
15.0414
-11984.2
-70052.8
-3028.58
-79012.2
-131.985
-80891.4
-94037.1
-21330.8
-7353.64
-45163.9
-898.687
-49100.8
-73155.5
-69032.4
-7154.34
-63282.6
-189934
-125490
-318.926
-85302.9
-79374
-318.768
-94.4473
-484504
-2995.6
-72844
-97.2926
-22516.9
-123042
-45709.2
19.9547
-64429.7
20.3537
-126261
-79176.4
-14918.1
-224.111
-37302.8
-237596
-116967
-72878.8
-39145.8
-219.259
-7433.32
-77911.6
-1325.35
-40818
-14476.8
-50257.6
-55928
-107433
-1315.45
-311728
-74997.2
-154876
-450.668
-173.312
-121864
-67288.9
-4072.84
-31764.8
-148510
15.8424
-94837.4
-26632.1
-118562
-28238.1
-43753.1
-28958.9
-4020.21
-164.481
-15212.2
-142011
-51484.4
-80557.8
-396911
-111405
-9308.77
-1248
-130964
-81086.6
-51014
-25149.1
-58169.4
-99463.1
-136975
-100691
-882.616
-881.656
-509.179
-24583.3
-510.457
-146.52
-8982.84
-18314.8
-115908
-146.576
-4027.5
26.2933
-23522.8
-81298.8
-84237.5
-87172.9
26.7666
-165264
-70765.9
-26170.1
-361.528
-45187.2
-97696.4
-17081
-160498
-360.371
-77033.5
-70860.7
-18260.7
-1897.68
-46065.9
-9167.84
-150373
-9358.47
-100245
-1030.83
-586280
-1867.4
-16046.4
-606.948
-74889.8
-183.852
-135182
-585084
-84556.8
-44584
-5206.71
29.6198
-55694.2
-115740
-362.959
-3417.5
-4975.53
-26521.7
-26578.6
-12475.7
-159649
-3610.1
-16347.7
-76602.4
-41055.4
-193776
-9677.19
-31000.2
-154171
-1936.57
-93088.3
-69295.9
-10283.4
-182917
-1459.99
-1464.98
-65945.9
-992.357
-57070.2
-997.378
-142224
-474.618
-478.648
-55.6613
-165142
-23857.3
-57.9803
-9415.61
-125573
-37472.5
-29.1962
-5138.81
-84416.2
-566369
-82.9602
-70846.9
-6886.38
-23.7591
-141772
-829.738
-104459
-784.997
-23570.4
-62201.2
-17677.1
-15681.1
-113261
-34858.8
-2872.58
-41923
-189980
-1560.37
-673892
-56223.2
-79711.9
-9469.89
-1024.38
-452.582
-2663.02
-10.504
-181994
-54250.3
-27.2327
-81867.1
-3382.45
-1504
-13484.7
-166840
-72.4246
-7048.64
-6023.98
-54529.3
-29542.9
-144269
-1007.26
-57125.5
-2508.49
-51070.5
-5251.73
-788511
-8647.34
-957054
-115784
-12858
-18724.5
-3361.79
-31908.3
-21611.4
-1579.45
-3072.35
-1587.31
-957.733
-26491.2
-968.756
-486.015
-339.093
-8761.96
-352.949
26.4725
-84271.2
22.409
-46774.1
-272.84
-179037
-9537.89
-231.984
-217589
-34801.5
-126.784
-342.386
-1744.68
-5662.11
-172419
-6891.82
-14377.9
-34747.2
-2491.67
-1565.26
-201758
-53252.1
-8381.04
-6157.85
-153733
-4660.96
-2817.31
69.3565
-172262
-1237.67
48.3295
-10737.9
-4106.67
-40472.9
-893.989
-125217
206.625
-3182.61
-9326.18
-12681.2
-8465.4
-133730
-27230.5
-8351.1
-11871.5
-15512.1
-6640.83
-92144.8
-983328
-21319.6
-15647.9
-25833
-37.9708
-23592.9
-6897.46
-92521.8
-36085.4
-19616.6
-246.7
-17344.8
-59308.7
-6372.34
-35344.7
-10299.2
-20996.2
-20215.8
-54991.9
-3103.74
-49011.8
-152863
-44135.9
-31395.7
-20.3062
-14499
-7111.77
-22497.6
-26687
-8245.25
-131446
-9448.87
-56512.5
-23457.9
-5070.49
-1202.74
-29922.1
-6167.18
-110219
-47301.1
-17106
94.38
-7965.52
-10877.2
-26494.2
-1983.72
-6933.37
-44572.1
-88043.2
-56590.9
-9044.9
-1.42081e+06
-1833.05
-7659.44
-24242
-4110.69
-64635.8
-12677.1
-4893.72
-44314.3
-1.5971e+06
-54265.7
-2747.99
-11283.5
-23939.1
-6748.82
-40989.5
-8189.63
-27510.8
-48545
-3035.44
-1998.43
-1364.04
-41775.9
-40706.5
-19877.5
-55299.2
-5821.82
-1.23484e+06
-25413.2
-35182.2
-39919.8
-40772.4
-93526.4
-4695.89
73.2361
-29645.6
-1103.36
-104588
-7115.25
-328.73
-55395.1
-76148.2
-30184.3
-37604.4
-84998.1
-48082.4
-1809.22
-49008
-61600.5
-19824.4
-1706.77
-2611.27
-66772.5
-343.543
-46722
-59566.9
-19746.3
281.538
-26835.5
-48038
-25956
-31470.3
213.678
-12347
-509.841
-47479.9
-29655.3
-7572.37
-36694.1
-1.58497e+06
-65008.9
-17320.2
-11681.2
-90.6388
-52898.7
-14261
-28886.8
138.588
-6901.83
-1371.25
-6799.52
-4408.71
-39112.7
-12327.4
-1706.08
-5985.58
-34.6185
-327.92
-21271.8
256.921
-26186
-40669.1
-3109.06
-218.608
-3142.7
-1032.24
-14981.9
-27212.6
-1976.44
-1283.98
-28490.2
-1381.42
-25848.8
-1.5087e+06
-2605.93
-516.402
-2996.25
-28565.8
-4961.84
-26.231
-14783.8
-7341.02
-19777.6
-22282.5
-2.42039e+06
-19842.8
-31.8518
-387.485
-13266.7
-20130.4
-26371.3
-29894.2
-936.861
-15057.9
-18802
-1924.88
-109275
-11680.5
-26980.3
-16998
-2646.55
-5504.23
-4213.93
-4318.88
-14889.6
-10968
-2.30246e+06
-4823.54
-23074.6
-3445.36
-1.92464e+06
-19691.8
-6844.71
-2598.61
-11895.9
-7005.84
-19135.4
-2.39081e+06
-9455.74
-1828.58
-9169.84
-16238.9
-1178.4
-3.31751e+06
-13009.5
-13393.3
-718.537
13.834
174.081
-3.01777e+06
-27675.6
-27909.1
-26366.3
-24556.7
-360.327
-23191.5
-2.29366e+06
-21440.4
-20111.2
-18404.4
-1755.09
-17186.8
-15615.8
-2.68568e+06
-14584
-4212.79
-13313.3
-12608.5
-11839.3
-8790.47
-7429.82
-4898.46
-2973.14
-1336.74
-3.39556e+06
-368.715
205.021
217.073
-315.29
-1260.64
-2961.19
-5411.51
-3.49506e+06
-9469.03
-3144.79
-2325.62
-3.10117e+06
-1598.06
-980.029
-487.485
-140.048
-42.7815
687.062
-649.832
-4.46283e+06
-4361.1
-10639.8
-19502.7
-36835.9
-4.01261e+06
-4701.97
-4149.43
-3661.58
-3231.77
-2805.99
-2416.84
-2047.95
-1701.12
-1386.21
-1079.97
-813.747
-472.261
-311.606
-209.565
457.249
768.226
469.794
-546.018
-2394.17
-4935.8
-8408.84
-12574.2
-17891.1
-23338.3
-33096.1
-44416.4
VECTORS Displacement float
0 0 0
0 0.0130267 0
0.0192853 0 0
0 0.025665 0
0.0379867 0 0
0 0.0378926 0
0.0557028 0 0
0 0.0500243 0
0.0601373 0.0141938 0
0.0726594 0 0
0 0.0648303 0
0.0564415 0.0332959 0
0 0.0906717 0
0.0541469 0.0521797 0
0.0858437 0.0125772 0
0.0887236 0 0
0.0517007 0.0853611 0
0.103697 0 0
0.10892 0.0107204 0
0.110181 0.0217514 0
0.117497 0 0
0.110011 0.0277566 0
0.108931 0.0343408 0
0.118298 0.0201642 0
0.107337 0.0411736 0
0.105818 0.0480939 0
0.103621 0.058942 0
0.12968 0 0
0.125679 0.018475 0
0.128746 0.00830607 0
0.100849 0.0743984 0
0.132581 0.0164776 0
0.130381 0.0281106 0
0.129033 0.0367882 0
0.140124 0 0
0.138824 0.0142551 0
0.126969 0.0485187 0
0.141126 0.0219058 0
0.123233 0.0718511 0
0.144142 0.00508091 0
0.144362 0.0117631 0
0.148172 0 0
0.149094 0.00895922 0
0.148867 0.0154305 0
0.147656 0.0249932 0
0.148052 0.0266936 0
0.148755 0.0284832 0
0.149705 0.0315866 0
0.150474 0.0213475 0
0.15081 0.0377798 0
0.152921 0.00586292 0
0.151665 0.0439115 0
0.151048 0.0254522 0
0.152006 0.0330836 0
0.151935 0.0516728 0
0.188321 0.0710686 0
0.208695 0.0788689 0
0.153213 0.0483874 0
0.153378 0.0355517 0
0.152804 0.0296331 0
0.211348 0.0754876 0
0.196566 0.0673237 0
0.154472 0.0444783 0
0.153041 0.0256565 0
0.20957 0.0716193 0
0.170499 0.0520254 0
0.153073 0.0223553 0
0.185028 0.0568162 0
0.152821 0.0176113 0
0.155408 0.0384683 0
0.206768 0.0638901 0
0.153726 0.026943 0
0.207517 0.0671551 0
0.153178 0.0194581 0
0.194917 0.0568896 0
0.172514 0.0447139 0
0.20116 0.055962 0
0.154872 0.0288819 0
0.2049 0.0622383 0
0.155935 0.0338371 0
0.153541 0 0
0.160663 0.0357436 0
0.203054 0.0523998 0
0.154541 0.0245166 0
0.203204 0.0547921 0
0.165312 0.0370632 0
0.191132 0.0468601 0
0.201935 0.0555701 0
0.154261 0.00775359 0
0.173168 0.0387011 0
0.156413 0.0296248 0
0.202109 0.0489269 0
0.154827 0.0190041 0
0.153531 0.000781736 0
0.18069 0.0395363 0
0.160465 0.0305034 0
0.198866 0.0497906 0
0.19884 0.0429864 0
0.155473 0.0199795 0
0.155479 0.0219772 0
0.188025 0.0388175 0
0.199629 0.044526 0
0.156707 0.0262389 0
0.154966 0.0135848 0
0.15603 0.0233143 0
0.197907 0.0446131 0
0.157519 0.0262763 0
0.169829 0.0316285 0
0.155737 0.0023816 0
0.193061 0.0376247 0
0.1585 0.0263425 0
0.197067 0.0404731 0
0.160663 0.0265725 0
0.195532 0.0432066 0
0.156312 0.019408 0
0.16339 0.0268172 0
0.157004 0.022939 0
0.156202 0.0154639 0
0.195388 0.0348672 0
0.183391 0.0317362 0
0.196096 0.0358917 0
0.157763 0.022586 0
0.168393 0.027118 0
0.19423 0.0356554 0
0.192148 0.0375962 0
0.195213 0.0322986 0
0.173704 0.0270189 0
0.159747 0.0220757 0
0.157238 0.019773 0
0.156646 0.0113809 0
0.191768 0.0342919 0
0.157067 0.0162793 0
0.157441 0.0195211 0
0.157254 0.0174116 0
0.156648 0.00928916 0
0.157662 0.0192711 0
0.191616 0.0284571 0
0.191494 0.0315526 0
0.179904 0.0259582 0
0.157284 0.0135499 0
0.19312 0.0288916 0
0.15801 0.0188718 0
0.15722 0.0115993 0
0.165064 0.0212899 0
0.158404 0.0184741 0
0.188667 0.0316889 0
0.191134 0.02841 0
0.184802 0.0244968 0
0.1577 0.0162402 0
0.159331 0.0179312 0
0.157662 0.013074 0
0.190778 0.0256045 0
0.157848 0.0156536 0
0.160606 0.017418 0
0.188113 0.0267435 0
0.188044 0.0217276 0
0.17496 0.0196639 0
0.158127 0.0147161 0
0.190016 0.0221555 0
0.185169 0.02658 0
0.163321 0.016704 0
0.157914 0.00759545 0
0.157383 -0.00133947 0
0.158033 0.0126763 0
0.157836 0.00475533 0
0.158076 0.0123576 0
0.185032 0.0243791 0
0.158115 0.0120342 0
0.187636 0.0213916 0
0.158114 0.0092075 0
0.158165 0.0100972 0
0.188605 0.0190726 0
0.158771 0.0132339 0
0.1667 0.0157991 0
0.184908 0.0223542 0
0.158162 0.0115216 0
0.158199 0.0109969 0
0.156924 -0.00117114 0
0.158284 0.00606269 0
0.184746 0.0198253 0
0.158225 0.0101845 0
0.183675 0.0156314 0
0.171391 0.0140557 0
0.181067 0.0208284 0
0.158253 0.00823306 0
0.184615 0.0174622 0
0.158215 0.0023036 0
0.158228 0.00934841 0
0.160865 0.0108678 0
0.158312 0.00330911 0
0.186769 0.0153868 0
0.158342 0.00526549 0
0.15825 0.00758244 0
0.155599 0 0
0.158442 5.27115e-05 0
0.180874 0.0170176 0
0.158292 0.00810663 0
0.175805 0.0118801 0
0.184397 0.0145187 0
0.158209 0.00653834 0
0.15843 0.00686132 0
0.184125 0.0116946 0
0.158248 0.00373755 0
0.158065 0.00489317 0
0.176944 0.0154381 0
0.158221 0.00340736 0
0.180651 0.0124651 0
0.158188 0.00307357 0
0.166439 0.00711932 0
0.179278 0.00831586 0
0.158383 -0.00105253 0
0.15834 0.000604477 0
0.1769 0.0136397 0
0.158131 0.00254831 0
0.159199 0.00514562 0
0.158299 0.000967107 0
0.182836 0.00819373 0
0.158064 0.00201486 0
0.176859 0.0119213 0
0.157806 -0.00541876 0
0.157941 0.00119394 0
0.157732 0.00238274 0
0.15831 -0.00250814 0
0.158507 -0.00476624 0
0.176797 0.00971046 0
0.160383 0.00330731 0
0.180311 0.00688757 0
0.15779 0.00035456 0
0.180277 0.00485418 0
0.157948 -0.00169841 0
0.176713 0.0075586 0
0.157538 -0.00090432 0
0.15783 -0.00235956 0
0.158064 -0.00409513 0
0.158138 -0.00566731 0
0.171829 0.00895405 0
0.17658 0.00480965 0
0.16282 0.000632568 0
0.157612 -0.00341186 0
0.15723 -0.00220245 0
0.158048 -0.00724769 0
0.173908 0.00122347 0
0.157367 -0.00144982 0
0.171765 0.00557933 0
0.176411 0.00212862 0
0.17868 0.000177076 0
0.157211 -0.00505156 0
0.156704 -0.00408947 0
0.158056 -0.0096478 0
0.157359 -0.00712375 0
0.165847 -0.00247973 0
0.155104 -0.00462386 0
0.157274 -0.00745021 0
0.176061 -0.00122787 0
0.157185 -0.00777935 0
0.171639 0.00134008 0
0.157577 -0.0102896 0
0.157412 -0.00951365 0
0.15609 -0.00603094 0
0.157047 -0.00829549 0
0.156592 -0.0110998 0
0.15647 -0.00755485 0
0.1569 -0.00881797 0
0.166585 0.00254346 0
0.157179 -0.0099704 0
0.156662 -0.00961749 0
0.175612 -0.00445792 0
0.16658 0.00088726 0
0.15717 -0.0120765 0
0.158329 -0.00734321 0
0.156407 -0.0104304 0
0.156889 -0.00957185 0
0.166564 -0.000740752 0
0.17135 -0.00394884 0
0.168325 -0.00716528 0
0.155264 -0.00879726 0
0.155997 -0.0116424 0
0.166523 -0.00283297 0
0.157152 -0.0145686 0
0.173462 -0.00824111 0
0.155154 -0.0112899 0
0.156307 -0.01342 0
0.156685 -0.0151249 0
0.155549 -0.0128798 0
0.166461 -0.00488883 0
0.156101 -0.0140573 0
0.156443 -0.0148932 0
0.154538 -0.0116169 0
0.15575 -0.0150672 0
0.154026 0 0
0.166348 -0.00749782 0
0.169195 -0.0118462 0
0.154853 -0.0146786 0
0.170749 -0.0103822 0
0.156348 -0.0169408 0
0.160042 -0.0053076 0
0.155169 -0.0166323 0
0.166199 -0.010052 0
0.154068 -0.016533 0
0.154454 -0.015402 0
0.16002 -0.00855604 0
0.15285 -0.0167012 0
0.161992 -0.0157555 0
0.155879 -0.0194368 0
0.155489 -0.0199019 0
0.154908 -0.0196139 0
0.165949 -0.0132282 0
0.154206 -0.0190067 0
0.154785 -0.0199223 0
0.154659 -0.020233 0
0.154973 -0.0208976 0
0.152856 -0.0191447 0
0.154465 -0.0207197 0
0.154266 -0.0212115 0
0.167763 -0.0178723 0
0.159918 -0.0126157 0
0.16565 -0.0163403 0
0.153953 -0.0219625 0
0.154387 -0.0223693 0
0.154669 -0.022432 0
0.155151 -0.0195483 0
0.153625 -0.022725 0
0.154692 -0.0137993 0
0.152586 -0.0225347 0
0.151507 -0.0218382 0
0.153121 -0.0238594 0
0.165066 -0.0201313 0
0.153284 -0.0132655 0
0.159669 -0.0176311 0
0.152586 -0.0250178 0
0.15394 -0.0248358 0
0.153279 -0.0148805 0
0.154247 -0.0242484 0
0.1529 -0.0264992 0
0.15326 -0.0164791 0
0.153189 -0.0212326 0
0.15004 -0.0244856 0
0.164151 -0.0237317 0
0.151768 -0.0266955 0
0.153142 -0.0267625 0
0.149537 -0.0255176 0
0.152642 -0.0270897 0
0.15322 -0.0184744 0
0.153352 -0.0264742 0
0.15557 -0.0252717 0
0.152214 -0.0280229 0
0.149901 -0.0276342 0
0.159184 -0.0237233 0
0.150886 -0.0284128 0
0.15316 -0.0204448 0
0.151528 -0.0294651 0
0.160813 -0.0275837 0
0.153056 -0.0228897 0
0.147461 -0.0292625 0
0.149575 -0.0308229 0
0.152107 -0.0296479 0
0.150429 -0.0316459 0
0.15235 -0.0289236 0
0.152924 -0.0252987 0
0.155372 -0.0311983 0
0.14814 -0.0332938 0
0.15816 -0.0308906 0
0.150505 -0.0331387 0
0.144999 -0.0228287 0
0.150365 -0.0334207 0
0.152719 -0.0282532 0
0.150719 -0.0330581 0
0.150223 -0.0337045 0
0.150006 -0.0341489 0
0.151281 -0.0178881 0
0.148685 -0.0348665 0
0.150621 -0.0332341 0
0.149783 -0.0345975 0
0.145633 -0.0347215 0
0.144981 -0.0259972 0
0.145249 -0.0341472 0
0.149437 -0.0352814 0
0.152471 -0.0311522 0
0.14908 -0.0359746 0
0.149585 -0.0355749 0
0.14856 -0.0352726 0
0.146074 -0.0366444 0
0.148537 -0.0370034 0
0.149896 -0.034541 0
0.148692 0 0
0.144892 -0.0298341 0
0.152095 -0.0346352 0
0.150151 -0.0334131 0
0.147968 -0.0380503 0
0.145932 -0.0394966 0
0.153167 -0.0385782 0
0.147121 -0.0395619 0
0.1492 -0.0355813 0
0.143823 -0.0400829 0
0.143452 -0.0392757 0
0.151668 -0.0380532 0
0.144684 -0.0344695 0
0.146223 -0.0411073 0
0.147595 -0.0104315 0
0.14793 -0.0390751 0
0.147435 -0.0401526 0
0.147165 -0.0406887 0
0.146723 -0.0415338 0
0.136526 -0.0325341 0
0.150653 -0.0420022 0
0.14491 -0.0432749 0
0.147421 -0.0392384 0
0.136519 -0.0340912 0
0.146023 -0.0428356 0
0.144285 -0.0400086 0
0.140775 -0.0445691 0
0.136501 -0.0356413 0
0.147646 -0.0377239 0
0.13993 -0.0441903 0
0.147019 -0.0304121 0
0.143501 -0.0454975 0
0.144925 -0.0447954 0
0.141647 -0.0459375 0
0.136463 -0.0374884 0
0.148856 -0.0456524 0
0.141325 -0.0458102 0
0.146895 -0.0216819 0
0.136408 -0.0393248 0
0.141486 -0.0485113 0
0.143213 -0.0476772 0
0.136322 -0.0415261 0
0.143604 -0.046523 0
0.144953 -0.043963 0
0.137614 -0.0490984 0
0.144534 -0.0452316 0
0.144541 -0.0492585 0
0.143989 -0.0467397 0
0.136211 -0.0437102 0
0.143854 -0.0469968 0
0.143716 -0.0472553 0
0.143503 -0.0476598 0
0.144567 -0.0439016 0
0.143287 -0.0480674 0
0.142952 -0.0486876 0
0.139304 -0.0515967 0
0.144853 -0.0417724 0
0.136046 -0.0463184 0
0.142609 -0.0493146 0
0.140562 -0.0518042 0
0.14209 -0.0502427 0
0.143961 -0.044005 0
0.139088 -0.0526338 0
0.142685 -0.0486057 0
0.135848 -0.0489013 0
0.14155 -0.0511846 0
0.126598 -0.0436922 0
0.141944 -0.0538396 0
0.135349 -0.054483 0
0.140749 -0.0525403 0
0.133752 -0.0547845 0
0.135566 -0.0519553 0
0.136279 -0.0556069 0
0.126583 -0.0467077 0
0.139906 -0.0539212 0
0.133652 -0.0565763 0
0.135237 -0.0549668 0
0.141461 -0.0482875 0
0.138681 -0.0558499 0
0.140801 -0.0509398 0
0.13651 -0.0575214 0
0.126509 -0.0501963 0
0.141767 -0.0455806 0
0.139917 -0.0532911 0
0.139664 -0.0537904 0
0.141582 -0.0249812 0
0.137373 -0.0578183 0
0.133096 -0.0596623 0
0.139257 -0.0545735 0
0.134745 -0.0584479 0
0.138615 -0.0557719 0
0.126341 -0.0542633 0
0.139914 0 0
0.135103 -0.0607806 0
0.129927 -0.0605727 0
0.135518 -0.060476 0
0.137614 -0.0575604 0
0.134132 -0.0618461 0
0.126034 -0.0590138 0
0.136065 -0.0601616 0
0.13857 -0.0381325 0
0.133516 -0.0631835 0
0.137727 -0.0539355 0
0.129026 -0.0646765 0
0.137996 -0.0524973 0
0.11668 -0.0549005 0
0.138425 -0.0490859 0
0.130506 -0.0650756 0
0.132476 -0.0654421 0
0.127116 -0.0651639 0
0.116667 -0.0563578 0
0.137687 -0.0514953 0
0.136541 -0.0564418 0
0.116645 -0.057821 0
0.133689 -0.0638378 0
0.125526 -0.0645171 0
0.135511 -0.0592268 0
0.130763 -0.0666895 0
0.116606 -0.0594491 0
0.135393 -0.0594739 0
0.135274 -0.0597216 0
0.12544 -0.0674846 0
0.135085 -0.060108 0
0.129642 -0.0685818 0
0.134893 -0.0604959 0
0.116554 -0.0610848 0
0.134596 -0.0610838 0
0.134292 -0.0616749 0
0.133833 -0.0625449 0
0.116476 -0.0629397 0
0.124802 -0.0696767 0
0.133357 -0.0634213 0
0.1278 -0.0702333 0
0.116381 -0.0648019 0
0.133916 -0.0602836 0
0.132655 -0.0646729 0
0.130092 -0.0688547 0
0.125196 -0.0715795 0
0.135477 -0.0279689 0
0.134852 -0.0522967 0
0.124677 -0.0707586 0
0.134292 -0.0563509 0
0.131919 -0.0659357 0
0.116248 -0.0669342 0
0.130855 -0.0676827 0
0.116088 -0.0690669 0
0.129727 -0.0694463 0
0.122389 -0.0744015 0
0.120846 -0.074507 0
0.132002 -0.0613364 0
0.12397 -0.0745733 0
0.115872 -0.071506 0
0.119657 -0.0755826 0
0.128133 -0.0718023 0
0.130653 -0.064699 0
0.105679 -0.0670653 0
0.130427 -0.0651995 0
0.131788 -0.0148568 0
0.121897 -0.077065 0
0.11562 -0.0739331 0
0.12477 -0.0753866 0
0.130068 -0.065979 0
0.129506 -0.0671584 0
0.126427 -0.0741738 0
0.131084 -0.0551671 0
0.105666 -0.06981 0
0.117076 -0.0779197 0
0.12864 -0.06889 0
0.115298 -0.0766799 0
0.130264 -0.0598917 0
0.13045 -0.0578345 0