# vtk DataFile Version 3.0
File generated from DClib
ASCII

DATASET UNSTRUCTURED_GRID
POINTS 1909 float
50 0 0 
48.75 0 0 
50 1.66667 0 
47.5 0 0 
50 3.33333 0 
46.25 0 0 
50 5 0 
45 0 0 
43.75 0 0 
50 6.66667 0 
43 2 0 
42.5 0 0 
50 8.33333 0 
43 4.66667 0 
41.25 0 0 
41.075 2 0 
50 10 0 
40 0 0 
43 7.33333 0 
39.15 2 0 
38.75 0 0 
43 10 0 
37.5 0 0 
37.225 2 0 
36.25 0 0 
36 4 0 
35.3 2 0 
36 5 0 
35 0 0 
35.325 4 0 
36 6 0 
36 7 0 
34.65 4 0 
36 8 0 
33.75 0 0 
33.975 4 0 
36 9 0 
33.375 2 0 
33.3 4 0 
36 10 0 
32.5 0 0 
32.625 4 0 
33 6 0 
31.95 4 0 
33 7.45455 0 
31.45 2 0 
31.25 0 0 
31.95 6 0 
33 8.79545 0 
31.275 4 0 
33 10 0 
30.6 4 0 
30 0 0 
30.9 6 0 
29.925 4 0 
29.525 2 0 
29.85 6 0 
29.25 4 0 
28.75 0 0 
30 8 0 
30 8.45455 0 
28.575 4 0 
29.625 8 0 
30 8.90909 0 
28.8 6 0 
30 9.25 0 
29.782 8.90909 0 
30 9.59091 0 
29.9487 9.59091 0 
29.25 8 0 
29.7462 9.25 0 
30 9.79545 0 
29.897 9.59091 0 
29.564 8.90909 0 
29.9547 9.79545 0 
29.3462 8.45455 0 
29.84 9.59091 0 
30 10 0 
29.8975 9.79545 0 
29.9882 10 0 
29.9902 10.0098 0 
29.7827 9.59091 0 
29.9765 10 0 
29.9804 10.0196 0 
29.9667 10.0098 0 
29.9591 10 0 
29.9686 10.0196 0 
29.9659 10.0341 0 
29.9569 10.0196 0 
29.9418 10 0 
29.9395 10.0196 0 
29.9515 10.0485 0 
29.932 10.0098 0 
29.9424 10.0341 0 
29.8241 9.79545 0 
29.7181 9.59091 0 
29.9166 10 0 
29.9397 10.0485 0 
29.9222 10.0196 0 
29.9279 10.0485 0 
29.9305 10.0695 0 
29.8914 10 0 
29.9077 10.0341 0 
27.9 4 0 
29.897 10.0196 0 
29.9106 10.0485 0 
29.8817 10.0098 0 
29.907 10.0695 0 
29.8933 10.0485 0 
29.9095 10.0905 0 
29.8719 10.0196 0 
27.6 2 0 
29.8556 10 0 
29.8978 10.0905 0 
29.6531 9.59091 0 
29.3437 8.90909 0 
27.5 0 0 
29.8681 10.0485 0 
29.886 10.0905 0 
29.8574 10.0341 0 
29.4839 9.25 0 
29.8723 10.0695 0 
29.7289 9.79545 0 
29.836 10.0196 0 
29.8687 10.0905 0 
29.8197 10 0 
29.8797 10.1203 0 
29.843 10.0485 0 
29.8513 10.0905 0 
29.81 10.0098 0 
29.8561 10.1203 0 
29.8002 10.0196 0 
29.8221 10.0695 0 
29.8072 10.0485 0 
29.8262 10.0905 0 
29.5782 9.59091 0 
29.8498 10.1502 0 
29.7695 10 0 
29.7858 10.0341 0 
29.838 10.1502 0 
29.8215 10.1203 0 
29.8011 10.0905 0 
29.8262 10.1502 0 
29.7714 10.0485 0 
28.875 8 0 
29.75 10.0196 0 
29.8089 10.1502 0 
29.7654 10.0905 0 
29.7193 10 0 
29.7916 10.1502 0 
29.7505 10.0695 0 
29.8079 10.1921 0 
29.7713 10.1203 0 
29.7096 10.0098 0 
29.6047 9.79545 0 
29.503 9.59091 0 
29.7213 10.0485 0 
29.7665 10.1502 0 
29.6999 10.0196 0 
29.7844 10.1921 0 
29.7296 10.0905 0 
29.6856 10.0341 0 
29.7414 10.1502 0 
29.7497 10.1921 0 
29.6503 10 0 
29.7661 10.2339 0 
29.6712 10.0485 0 
29.6999 10.1203 0 
29.7543 10.2339 0 
29.6796 10.0905 0 
29.7057 10.1502 0 
29.7425 10.2339 0 
29.1235 8.90909 0 
29.6309 10.0196 0 
29.6504 10.0695 0 
29.4146 9.59091 0 
29.7252 10.2339 0 
29.6996 10.1921 0 
29.6701 10.1502 0 
29.7079 10.2339 0 
29.6296 10.0905 0 
29.5813 10 0 
29.6023 10.0485 0 
29.5716 10.0098 0 
29.6828 10.2339 0 
29.7086 10.2914 0 
29.2101 9.25 0 
29.562 10.0196 0 
29.6201 10.1502 0 
29.6578 10.2339 0 
29.4428 9.79545 0 
29.5999 10.1203 0 
29.6849 10.2914 0 
29.6283 10.1921 0 
29.5477 10.0341 0 
29.3259 9.59091 0 
29.5608 10.0905 0 
29.5335 10.0485 0 
29.6221 10.2339 0 
29.6503 10.2914 0 
29.5702 10.1502 0 
29.4881 10 0 
29.5128 10.0695 0 
29.6511 10.3489 0 
29.5866 10.2339 0 
29.6392 10.3489 0 
29.4689 10.0196 0 
29.6002 10.2914 0 
29.6273 10.3489 0 
29.4921 10.0905 0 
29.61 10.3489 0 
29.5286 10.1921 0 
29.5016 10.1502 0 
29.5368 10.2339 0 
29.5926 10.3489 0 
29.4405 10.0485 0 
29.2199 9.59091 0 
29.4626 10.1203 0 
29.3949 10 0 
28.9 8.90909 0 
29.5676 10.3489 0 
29.5291 10.2914 0 
29.3853 10.0098 0 
28.6923 8.45455 0 
29.487 10.2339 0 
29.5426 10.3489 0 
29.3758 10.0196 0 
29.5734 10.4266 0 
29.4331 10.1502 0 
29.3993 10.0905 0 
28.5 8 0 
29.3617 10.0341 0 
29.5496 10.4266 0 
29.5071 10.3489 0 
29.2327 9.79545 0 
29.3475 10.0485 0 
29.1136 9.59091 0 
29.4187 10.2339 0 
29.5148 10.4266 0 
29.4716 10.3489 0 
29.3918 10.1921 0 
29.3271 10.0695 0 
29.4298 10.2914 0 
29.2714 10 0 
29.3406 10.1502 0 
28.9208 9.25 0 
29.3066 10.0905 0 
29.4648 10.4266 0 
29.422 10.3489 0 
29.4958 10.5042 0 
29.2524 10.0196 0 
27.75 6 0 
29.3504 10.2339 0 
29.4837 10.5042 0 
29.4718 10.5042 0 
29.2774 10.1203 0 
29.4543 10.5042 0 
29.3724 10.3489 0 
29.2244 10.0485 0 
29.4369 10.5042 0 
29.3938 10.4266 0 
28.9853 9.59091 0 
29.2481 10.1502 0 
28.6766 8.90909 0 
29.4119 10.5042 0 
29.2934 10.2914 0 
27.225 4 0 
29.148 10 0 
29.2582 10.2339 0 
29.1837 10.0905 0 
29.3869 10.5042 0 
29.1385 10.0098 0 
29.3044 10.3489 0 
29.1291 10.0196 0 
29.2072 10.1921 0 
29.3514 10.5042 0 
29.1152 10.0341 0 
29.3929 10.6071 0 
29.2949 10.4266 0 
29.1013 10.0485 0 
29.3686 10.6071 0 
29.316 10.5042 0 
29.2364 10.3489 0 
28.9623 9.79545 0 
29.1257 10.1502 0 
29.1662 10.2339 0 
29.0811 10.0695 0 
28.8566 9.59091 0 
29.3336 10.6071 0 
29.2666 10.5042 0 
29.0609 10.0905 0 
28.9875 10 0 
29.2835 10.6071 0 
29.1448 10.3489 0 
29.0321 10.1203 0 
29.2173 10.5042 0 
29.1098 10.2914 0 
28.125 8 0 
28.9688 10.0196 0 
29.1594 10.4266 0 
28.611 9.25 0 
29.29 10.71 0 
28.4486 8.90909 0 
29.0443 10.2339 0 
29.0033 10.1502 0 
29.2777 10.71 0 
28.9413 10.0485 0 
29.2128 10.6071 0 
29.2655 10.71 0 
29.1497 10.5042 0 
29.2478 10.71 0 
28.7003 9.59091 0 
29.0533 10.3489 0 
29.2303 10.71 0 
28.9629 10.1921 0 
28.9013 10.0905 0 
29.2051 10.71 0 
29.0822 10.5042 0 
29.1801 10.71 0 
28.827 10 0 
29.1144 10.6071 0 
28.8177 10.0098 0 
28.9225 10.2339 0 
28.8085 10.0196 0 
29.1447 10.71 0 
28.7949 10.0341 0 
28.8443 10.1502 0 
28.977 10.4266 0 
28.9322 10.3489 0 
29.1094 10.71 0 
28.7813 10.0485 0 
28.9912 10.5042 0 
29.1562 10.8438 0 
28.5436 9.59091 0 
28.7615 10.0695 0 
28.8669 10.2914 0 
29.1313 10.8438 0 
28.6184 9.79545 0 
29.0602 10.71 0 
28.2207 8.90909 0 
28.7418 10.0905 0 
28.0378 8.45455 0 
28.9798 10.6071 0 
29.0958 10.8438 0 
29.0112 10.71 0 
28.9005 10.5042 0 
28.7136 10.1203 0 
28.7644 10.2339 0 
28.8113 10.3489 0 
29.0454 10.8438 0 
28.6223 10 0 
28.6854 10.1502 0 
28.2746 9.25 0 
28.9441 10.71 0 
28.6042 10.0196 0 
27.75 8 0 
28.9747 10.8438 0 
28.6459 10.1921 0 
28.5773 10.0485 0 
29.0225 10.9775 0 
28.3532 9.59091 0 
28.7804 10.5042 0 
28.736 10.4266 0 
28.8772 10.71 0 
29.0097 10.9775 0 
28.9971 10.9775 0 
28.799 10.6071 0 
28.9791 10.9775 0 
28.5384 10.0905 0 
28.6064 10.2339 0 
28.6543 10.3489 0 
28.9611 10.9775 0 
28.8769 10.8438 0 
27.9867 8.90909 0 
26.25 0 0 
28.9358 10.9775 0 
28.7871 10.71 0 
28.9106 10.9775 0 
28.6607 10.5042 0 
28.4177 10 0 
26.55 4 0 
28.552 10.2914 0 
28.483 10.1502 0 
28.4087 10.0098 0 
28.8751 10.9775 0 
28.3998 10.0196 0 
28.3866 10.0341 0 
28.8399 10.9775 0 
28.6974 10.71 0 
28.3735 10.0485 0 
28.1625 9.59091 0 
28.7436 10.8438 0 
28.4976 10.3489 0 
28.3543 10.0695 0 
28.791 10.9775 0 
28.4052 10.2339 0 
28.3352 10.0905 0 
28.8519 11.1481 0 
28.1869 9.79545 0 
28.5607 10.6071 0 
28.5053 10.5042 0 
28.7423 10.9775 0 
28.8258 11.1481 0 
28.308 10.1203 0 
28.5787 10.71 0 
27.904 9.25 0 
28.7893 11.1481 0 
28.424 10.4266 0 
27.7528 8.90909 0 
28.2807 10.1502 0 
28.6758 10.9775 0 
27.375 8 0 
28.7383 11.1481 0 
28.1619 10 0 
28.5649 10.8438 0 
28.2425 10.1921 0 
28.6096 10.9775 0 
28.1444 10.0196 0 
28.298 10.3489 0 
28.4605 10.71 0 
26.7 6 0 
27.9315 9.59091 0 
28.3503 10.5042 0 
28.6676 11.1481 0 
28.1187 10.0485 0 
28.2042 10.2339 0 
28.5207 10.9775 0 
28.0813 10.0905 0 
28.6814 11.3186 0 
27.3818 8.45455 0 
28.6679 11.3186 0 
28.1516 10.2914 0 
28.5703 11.1481 0 
28.6544 11.3186 0 
28.6358 11.3186 0 
27.5109 8.90909 0 
28.3072 10.71 0 
28.6173 11.3186 0 
28.2524 10.6071 0 
28.4322 10.9775 0 
28.028 10.1502 0 
28.5915 11.3186 0 
28.0989 10.3489 0 
28.33 10.8438 0 
28.5658 11.3186 0 
28.153 10.5042 0 
27.9061 10 0 
27.8975 10.0098 0 
28.5303 11.3186 0 
28.4384 11.1481 0 
27.7002 9.59091 0 
27.889 10.0196 0 
27.8765 10.0341 0 
28.4949 11.3186 0 
28.3154 10.9775 0 
27.9532 10.2339 0 
27.8639 10.0485 0 
28.0276 10.4266 0 
28.1544 10.71 0 
27.8457 10.0695 0 
27.4909 9.25 0 
28.4463 11.3186 0 
27 8 0 
27.8275 10.0905 0 
28.3979 11.3186 0 
27.8015 10.1203 0 
27.6542 9.79545 0 
25.675 2 0 
28.1991 10.9775 0 
27.2691 8.90909 0 
27.9563 10.5042 0 
28.4682 11.5318 0 
28.2625 11.1481 0 
27.7755 10.1502 0 
28.3322 11.3186 0 
27.8502 10.3489 0 
28.4401 11.5318 0 
25.875 4 0 
27.7391 10.1921 0 
28.4019 11.5318 0 
28.0268 10.8438 0 
28.2668 11.3186 0 
27.9602 10.71 0 
28.3498 11.5318 0 
27.4223 9.59091 0 
27.7026 10.2339 0 
27.5927 10 0 
28.0486 10.9775 0 
27.8616 10.6071 0 
27.5762 10.0196 0 
28.1794 11.3186 0 
28.2786 11.5318 0 
27.5519 10.0485 0 
27.6524 10.2914 0 
28.0319 11.1481 0 
27.7108 10.5042 0 
27.5167 10.0905 0 
27.0169 8.90909 0 
28.0924 11.3186 0 
27.6021 10.3489 0 
27.8988 10.9775 0 
28.1818 11.5318 0 
27.7667 10.71 0 
26.625 8 0 
28.255 11.745 0 
27.4664 10.1502 0 
28.2402 11.745 0 
28.2256 11.745 0 
28.2059 11.745 0 
27.978 11.3186 0 
26.7234 8.45455 0 
27.0259 9.25 0 
27.5342 10.4266 0 
28.1863 11.745 0 
27.1442 9.59091 0 
28.0516 11.5318 0 
28.1598 11.745 0 
27.3959 10.2339 0 
28.1334 11.745 0 
27.2793 10 0 
27.2714 10.0098 0 
27.2635 10.0196 0 
27.7086 10.9775 0 
27.6431 10.8438 0 
28.0975 11.745 0 
27.8643 11.3186 0 
27.4661 10.5042 0 
27.2518 10.0341 0 
27.2401 10.0485 0 
28.0617 11.745 0 
26.7648 8.90909 0 
27.5255 10.71 0 
27.7353 11.1481 0 
27.2231 10.0695 0 
28.0133 11.745 0 
27.2061 10.0905 0 
27.8791 11.5318 0 
27.2986 10.3489 0 
27.1818 10.1203 0 
27.9651 11.745 0 
27.3758 10.6071 0 
27.0077 9.79545 0 
27.7174 11.3186 0 
27.1576 10.1502 0 
25 0 0 
27.5193 10.9775 0 
27.9003 11.745 0 
27.1236 10.1921 0 
26.25 8 0 
27.9939 12.0061 0 
25.65 6 0 
27.8359 11.745 0 
26.8136 9.59091 0 
27.0896 10.2339 0 
27.9626 12.0061 0 
27.2853 10.71 0 
25.2 4 0 
27.5713 11.3186 0 
27.9218 12.0061 0 
26.4998 8.90909 0 
27.167 10.5042 0 
27.6541 11.5318 0 
27.0427 10.2914 0 
27.7503 11.745 0 
26.9033 10 0 
27.8677 12.0061 0 
26.8882 10.0196 0 
26.8659 10.0485 0 
26.9958 10.3489 0 
27.2836 10.9775 0 
27.6652 11.745 0 
27.3609 11.1481 0 
27.7955 12.0061 0 
26.499 9.25 0 
[...]
POINT_DATA 1909
SCALARS phi float 1
LOOKUP_TABLE default
VECTORS Displacement float
1.69051e-317 1.69051e-317 0
1.12812e-317 1.12812e-317 0
0.000138259 -0.00240739 0
0.000242127 0.00091785 0
-0.000542921 -0.000299593 0
0.00078867 -0.00239746 0
-0.000207151 0.00191966 0
-1.05204e-06 -0.00107528 0
-0.000949062 0.00579586 0
-0.000142482 0.00790427 0
0.0175864 -0.00162259 0
0.000759705 -0.00248942 0
-0.000655389 0.0180616 0
0.0331209 0.00711083 0
0.000247523 -0.000562995 0
0.0170063 0.00195097 0
-0.000536255 0.0267544 0
-0.00109166 -0.000119167 0
0.055461 0.0141365 0
0.0296826 0.000341884 0
0.00013454 -0.000291612 0
0.0507384 0.0374007 0
-0.000155079 0.000327488 0
0.0379537 -0.00187091 0
-0.00538248 0.00267037 0
0.0680291 0.00509352 0
0.0440819 -0.00279107 0
0.0811728 0.0105027 0
0.00262265 -0.00162852 0
0.0744085 0.0038934 0
0.0901991 0.0170138 0
0.0902471 0.0290607 0
0.0799605 0.00255351 0
0.0990125 0.032838 0
-0.000247184 -9.16263e-05 0
0.0838586 0.00306846 0
0.10135 0.0413892 0
0.0523212 -0.00420509 0
0.0884584 0.00213469 0
0.103596 0.0518414 0
0.000441487 -0.000448005 0
0.092696 0.000688965 0
0.101585 0.0248001 0
0.0906606 0.00292852 0
0.130085 0.0294924 0
0.0903249 -0.0253028 0
0.0110936 -0.00424997 0
0.123265 0.0128199 0
0.117997 0.0582501 0
0.0997434 0.000210019 0
0.13391 0.0744924 0
0.103416 -0.00127406 0
0.00653314 -0.00499882 0
0.133506 0.00946444 0
0.105265 -0.00091622 0
0.0695611 -0.012533 0
0.14523 0.00224981 0
0.110215 -0.00426798 0
-0.0221727 0.0190941 0
0.164911 0.0186256 0
0.176826 0.0184938 0
0.123188 -0.014433 0
0.1726 0.0132296 0
0.183055 0.022212 0
0.148216 0.000435405 0
0.179407 0.0370646 0
0.185108 0.0204006 0
0.188667 0.0432794 0
0.183913 0.0428246 0
0.161568 0.0137327 0
0.188024 0.0271623 0
0.189846 0.0499655 0
0.201426 0.0342331 0
0.212621 0.0137207 0
0.190369 0.0475731 0
0.167212 0.0179071 0
0.191163 0.0371585 0
0.189741 0.0585905 0
0.191241 0.0447947 0
0.184918 0.0605311 0
0.241797 0.0769634 0
0.194093 0.0331351 0
0.193488 0.0570688 0
0.275968 0.0882152 0
0.240013 0.0764299 0
0.187212 0.0612697 0
0.26831 0.0934746 0
0.278975 0.08799 0
0.276573 0.084553 0
0.192836 0.0570911 0
0.270939 0.0861691 0
0.279131 0.0874407 0
0.240137 0.0733872 0
0.2774 0.0865632 0
0.193347 0.0423815 0
0.192357 0.0333135 0
0.193004 0.0572347 0
0.277255 0.0853051 0
0.268282 0.0839405 0
0.282507 0.0885287 0
0.277639 0.0853317 0
0.194459 0.0569955 0
0.274773 0.0848577 0
0.112262 -0.00681001 0
0.266627 0.0834342 0
0.277719 0.0847715 0
0.23534 0.0710139 0
0.279997 0.0856124 0
0.278352 0.0854144 0
0.278788 0.0849614 0
0.259728 0.0767336 0
0.0620667 -0.00577614 0
0.19814 0.0603698 0
0.277666 0.0830898 0
0.192714 0.0314933 0
0.187734 0.0193671 0
-0.00160535 -0.00269687 0
0.279441 0.0847269 0
0.278277 0.0834938 0
0.270443 0.0802771 0
0.190435 0.0240998 0
0.278599 0.0832162 0
0.194976 0.0384994 0
0.257378 0.0754041 0
0.278051 0.0824617 0
0.196788 0.0549549 0
0.27858 0.0842289 0
0.275527 0.0806512 0
0.280004 0.0810672 0
0.232712 0.0661097 0
0.278507 0.0824926 0
0.25295 0.0735131 0
0.277136 0.0790548 0
0.27313 0.0776122 0
0.278237 0.0804725 0
0.193998 0.0297393 0
0.278293 0.0821766 0
0.198795 0.0510941 0
0.26343 0.074494 0
0.278149 0.0812999 0
0.277986 0.0803502 0
0.278329 0.0776935 0
0.277777 0.0805831 0
0.270595 0.0757017 0
0.17768 0.00984043 0
0.248088 0.0672182 0
0.279015 0.0757332 0
0.277483 0.0748034 0
0.200532 0.0484469 0
0.276588 0.0833523 0
0.274617 0.0750808 0
0.276993 0.0805657 0
0.278836 0.0732046 0
0.228956 0.0589577 0
0.19664 0.0346623 0
0.194638 0.0272734 0
0.266536 0.072012 0
0.277086 0.0772796 0
0.244768 0.0634822 0
0.277214 0.0771592 0
0.276245 0.0734744 0
0.255625 0.0657091 0
0.27664 0.0742763 0
0.276403 0.0755326 0
0.202826 0.045834 0
0.275948 0.0767338 0
0.263589 0.0672894 0
0.276619 0.0721526 0
0.274155 0.0746814 0
0.27485 0.0697665 0
0.278816 0.0725309 0
0.275895 0.0748724 0
0.18927 0.0163943 0
0.239213 0.0575943 0
0.268799 0.0672301 0
0.195433 0.0270571 0
0.276582 0.0750143 0
0.274852 0.0707608 0
0.276957 0.0698202 0
0.275409 0.0728268 0
0.272317 0.066241 0
0.204439 0.0431292 0
0.2578 0.0619442 0
0.225939 0.0505943 0
0.275505 0.0704982 0
0.27473 0.0743139 0
0.193044 0.0198576 0
0.236867 0.0552544 0
0.276558 0.0639435 0
0.273822 0.0673682 0
0.199367 0.0326802 0
0.275234 0.0698012 0
0.274751 0.0704755 0
0.275703 0.0661322 0
0.245056 0.0548819 0
0.196064 0.0237318 0
0.269521 0.0631074 0
0.254173 0.0594298 0
0.273375 0.0652135 0
0.274685 0.0703537 0
0.275307 0.0631624 0
0.205779 0.0398963 0
0.260402 0.058117 0
0.273464 0.0697318 0
0.274738 0.0644351 0
0.273449 0.0688817 0
0.233175 0.04841 0
0.273245 0.0651447 0
0.274188 0.0694784 0
0.264582 0.0574386 0
0.273311 0.0671674 0
0.275283 0.0607106 0
0.274116 0.0598125 0
0.27395 0.0609683 0
0.272709 0.0687366 0
0.247122 0.0526049 0
0.193935 0.019291 0
0.273183 0.0611306 0
0.206628 0.0362851 0
0.189868 0.0147447 0
0.276246 0.0627132 0
0.278151 0.0603974 0
0.222384 0.0428622 0
0.187871 0.00955202 0
0.268339 0.0616201 0
0.259116 0.0660096 0
0.229074 0.0443641 0
0.288222 0.0599986 0
0.272137 0.0563933 0
0.259966 0.055192 0
0.180925 0.00534566 0
0.226096 0.0487899 0
0.276167 0.0616267 0
0.271802 0.0606459 0
0.201716 0.028198 0
0.245695 0.0457612 0
0.197051 0.023005 0
0.273746 0.055694 0
0.267192 0.0636446 0
0.274782 0.0579093 0
0.273617 0.0544598 0
0.248049 0.0493279 0
0.271525 0.0580289 0
0.209152 0.0330906 0
0.269031 0.0522878 0
0.197949 0.0158452 0
0.258668 0.046393 0
0.271296 0.0597229 0
0.267008 0.0624968 0
0.270422 0.060513 0
0.227404 0.0344277 0
0.152032 -0.0020366 0
0.275747 0.0517524 0
0.26852 0.0616329 0
0.270284 0.0596338 0
0.261621 0.0487551 0
0.268859 0.0601368 0
0.272399 0.0527681 0
0.235886 0.0425774 0
0.272319 0.0560452 0
0.269972 0.0560452 0
0.198236 0.020968 0
0.265536 0.0487253 0
0.192799 0.0116006 0
0.269776 0.0575474 0
0.272111 0.0510371 0
0.116476 -0.00824364 0
0.210225 0.0312876 0
0.272166 0.0493327 0
0.248621 0.0447105 0
0.2699 0.0554518 0
0.218587 0.0346967 0
0.271481 0.0505581 0
0.222662 0.035926 0
0.269192 0.0469083 0
0.270023 0.0543884 0
0.226771 0.0377397 0
0.269993 0.0527043 0
0.270604 0.0499964 0
0.229819 0.0443584 0
0.268543 0.0540191 0
0.269443 0.0512722 0
0.27223 0.0454942 0
0.204702 0.0228946 0
0.260756 0.0446205 0
0.269705 0.0479198 0
0.23793 0.0375532 0
0.197844 0.01765 0
0.271836 0.0586091 0
0.267619 0.0459429 0
0.258665 0.0565985 0
0.16648 -0.0215323 0
0.32652 0.112046 0
0.269099 0.0439796 0
0.205016 -0.00387105 0
0.284798 0.0625899 0
0.273936 0.0462059 0
0.191314 0.0104745 0
0.218467 0.0307136 0
0.255371 0.0354852 0
0.210284 0.0211086 0
0.252757 0.0450239 0
0.202739 0.0128271 0
0.266224 0.0401747 0
0.260479 0.0433285 0
0.263094 0.0396548 0
0.244426 0.0611043 0
0.218126 -0.0241371 0
0.328237 0.146725 0
0.26748 0.0434128 0
0.22365 -0.014103 0
0.215288 0.0380197 0
0.27218 0.0391231 0
0.274062 0.0556632 0
0.260017 0.0383548 0
0.22577 0.0253417 0
0.274009 0.0539677 0
0.262241 0.0397768 0
0.269445 0.0482078 0
0.211902 0.0255147 0
0.267436 0.0446471 0
0.216091 0.0273645 0
0.263674 0.0379289 0
0.218217 0.0271783 0
0.266931 0.0453514 0
0.222208 0.0277902 0
0.248077 0.0342979 0
0.269118 0.0399462 0
0.268889 0.0384101 0
0.266734 0.0449068 0
0.22312 0.0284433 0
0.268138 0.0403686 0
0.265314 0.046244 0
0.202266 0.0159766 0
0.227767 0.0276138 0
0.26628 0.0371305 0
0.265101 0.0450093 0
0.206635 0.0184114 0
0.266435 0.045829 0
0.195614 0.00754694 0
0.230738 0.0287797 0
0.18942 0.00448002 0
0.267852 0.0391161 0
0.265317 0.0447317 0
0.26625 0.0408421 0
0.267792 0.0376554 0
0.236471 0.0303828 0
0.258475 0.0342602 0
0.26784 0.0354515 0
0.263938 0.0413666 0
0.213282 0.0219021 0
0.243378 0.0311653 0
0.200499 0.0103133 0
0.265044 0.0380284 0
0.216461 0.0228278 0
0.184689 0.000947184 0
0.265359 0.0404226 0
0.247008 0.0300116 0
0.22035 0.0234816 0
0.264011 0.0412836 0
0.203625 0.0141603 0
0.267478 0.0339717 0
0.26718 0.0324095 0
0.265664 0.036094 0
0.264467 0.045017 0
0.263181 0.0399798 0
0.265827 0.0337388 0
0.26308 0.0394244 0
0.226072 0.025119 0
0.253181 0.0300511 0
0.265036 0.0315774 0
0.263036 0.0399792 0
0.264632 0.0358859 0
0.196934 0.0062581 0
-9.55823e-05 0.000314539 0
0.262553 0.0406243 0
0.265871 0.0340755 0
0.264816 0.0342305 0
0.266606 0.0335025 0
0.214089 0.0185333 0
0.116459 -0.00746272 0
0.257713 0.0296501 0
0.234476 0.0236443 0
0.214786 0.0197446 0
0.263535 0.0358094 0
0.215181 0.0214044 0
0.217626 0.0200458 0
0.263325 0.0344714 0
0.267289 0.0267705 0
0.218407 0.0190772 0
0.20112 0.0218215 0
0.266123 0.0277294 0
0.261155 0.0276726 0
0.220905 0.020358 0
0.263394 0.0325848 0
0.243833 0.0280295 0
0.223288 0.0186191 0
0.26105 0.0361685 0
0.208929 0.013691 0
0.265886 0.0293673 0
0.265645 0.0279552 0
0.263023 0.032752 0
0.262821 0.035326 0
0.225697 0.020335 0
0.264057 0.02777 0
0.203868 0.00763108 0
0.260801 0.0345807 0
0.263682 0.025988 0
0.198143 0.00403761 0
0.228819 0.0206067 0
0.262692 0.0306497 0
0.187043 -0.000759992 0
0.261489 0.031105 0
0.213743 0.0156572 0
0.263587 0.0277926 0
0.233506 0.025479 0
0.262607 0.0286652 0
0.214463 0.0124968 0
0.257237 0.0243887 0
0.264895 0.0244901 0
0.154894 -0.00742736 0
0.206428 0.00943588 0
0.26511 0.0244516 0
0.261227 0.0307596 0
0.217276 0.0151145 0
0.238066 0.0208116 0
0.262638 0.0270677 0
0.220718 0.0154267 0
0.25883 0.0324319 0
0.192959 -0.000729174 0
0.258095 0.0301218 0
0.24409 0.0203281 0
0.262336 0.0280433 0
0.259144 0.0305597 0
0.258427 0.0294262 0
0.199601 0.00176682 0
0.264298 0.0235103 0
0.258891 0.0303484 0
0.264501 0.0222723 0
0.262529 0.0252665 0
0.224992 0.0152511 0
0.258875 0.0291004 0
0.248926 0.0195949 0
0.2635 0.0232766 0
0.2589 0.0283869 0
0.261995 0.0208 0
0.21529 0.0106184 0
0.215214 0.0124862 0
0.259087 0.0282792 0
0.261721 0.021986 0
0.207469 0.00548394 0
0.215065 0.0101225 0
0.2165 0.0103705 0
0.258641 0.0313712 0
0.261989 0.0237168 0
0.230998 0.0147376 0
0.217152 0.0120363 0
0.254702 0.0173574 0
0.264692 0.0177998 0
0.217759 0.0104847 0
0.204329 0.0035023 0
0.258791 0.0263862 0
0.188288 -0.00512422 0
0.218906 0.0109178 0
0.258731 0.024291 0
0.220965 0.0121852 0
0.2098 0.00480388 0
0.0647513 -0.0049348 0
0.262615 0.0178187 0
0.199449 -0.00187948 0
0.264714 0.0250082 0
0.247939 0.0185807 0
0.26285 0.0234354 0
0.222014 0.0115436 0
0.258555 0.0226531 0
0.241878 0.0146037 0
0.255963 0.0247269 0
0.118326 -0.00892241 0
0.224788 0.0128458 0
0.255218 0.0214464 0
0.263604 0.0194738 0
0.260235 0.0165872 0
0.261519 0.0138912 0
0.264615 0.0360222 0
0.198256 -0.00816393 0
0.229825 0.0143093 0
0.215516 0.00682011 0
0.261498 0.0172154 0
0.260749 0.0155461 0
0.21571 0.0061245 0
0.258743 0.0195123 0
0.256942 0.0209581 0
0.216669 0.00700993 0
0.230712 0.0104526 0
0.26024 0.016453 0
0.252236 0.0119685 0
0.218148 0.00658467 0
0.200756 -0.00339704 0
0.257841 0.0194527 0
0.235003 0.00998924 0
0.26247 0.0126729 0
0.256531 0.0190763 0
0.26127 0.0128001 0
0.188711 -0.00570705 0
0.254064 0.020177 0
0.220362 0.00584577 0
0.254671 0.019875 0
0.254229 0.0204624 0
0.254665 0.0192072 0
0.258156 0.0152 0
0.195006 -0.00546996 0
0.206297 -0.00250452 0
0.239947 0.00964375 0
0.254823 0.0181243 0
0.210111 -0.00033115 0
0.25632 0.0173478 0
0.253763 0.0203941 0
0.223884 0.00435254 0
0.253848 0.0177446 0
0.217873 -0.00275728 0
0.21612 0.00340846 0
0.214608 0.009192 0
0.26047 0.0103961 0
0.260817 0.00970806 0
0.255895 0.0127558 0
0.257672 0.0131229 0
0.244874 0.00932035 0
0.21624 0.00395923 0
0.217478 0.000519687 0
0.254032 0.0176542 0
0.201974 -0.00529887 0
0.258725 0.00762412 0
0.258994 0.0112953 0
0.207882 -0.0102031 0
0.273779 0.0372557 0
0.216185 -0.0016583 0
0.246832 0.00316147 0
0.229013 0.00210223 0
0.221799 0.00543171 0
0.254436 0.0167789 0
0.248545 0.00632457 0
0.200981 -0.0148721 0
0.279798 0.0519735 0
0.215843 -0.00755226 0
-0.00964655 -0.00707755 0
0.257413 0.0017195 0
0.257996 0.0112801 0
0.222984 0.00752995 0
0.189894 -0.0105962 0
0.251496 0.0151633 0
0.146811 -0.00954555 0
0.2545 0.0113594 0
0.210976 -0.00393408 0
0.242241 -0.00594079 0
0.247041 0.0165807 0
0.253901 0.00419994 0
0.118338 -0.00967986 0
0.247437 0.0104014 0
0.251382 0.013529 0
0.202295 -0.00753681 0
0.246401 -0.00150624 0
0.251566 0.0103502 0
0.223793 0.000254114 0
0.256843 0.00851943 0
0.21631 -0.00270917 0
0.251599 0.0116848 0
0.21009 0.00371347 0
0.219756 -0.00458573 0
0.225032 0.00011226 0
0.259409 0.00149365 0
0.25732 0.00577822 0
0.25848 0.00448575 0
0.251712 0.0104418 0
0.202869 -0.00429075 0
0.220025 -0.00439197 0
0.255265 0.000379362 0
0.259198 0.00616554 0
0.226988 -0.00237052 0
0.250393 0.01187 0
0.25539 0.00753384 0
0.21016 -0.014212 0
0.260255 0.00993229 0
0.198371 -0.0136718 0
0.196676 -0.0115568 0
0.211478 -0.00738722 0
0.254702 0.0023776 0
0.232948 -0.000801353 0
0.189792 -0.0130737 0
0.2483 0.00761259 0
0.222296 -0.00215745 0
0.252709 0.00208839 0
0.248151 0.0125248 0
0.252436 0.00652773 0
0.249642 -0.011692 0
0.258916 0.0213308 0
0.253229 -0.00405065 0
0.248676 0.00731751 0
0.249002 0.00840302 0
0.248397 0.00601561 0
0.217939 -0.00565011 0
0.23536 -0.00360963 0
0.216667 -0.00655128 0
0.223488 -0.0108318 0
0.251928 0.00550145 0
0.218471 -0.00788101 0
0.204996 0.00625725 0
0.248078 0.00306994 0
0.221989 -0.00924912 0
0.244221 0.00811904 0
0.240829 -0.0239986 0
0.250271 0.00377011 0
0.24826 0.005442 0
0.220975 -0.00927122 0
0.201821 0.00487921 0
0.209015 -0.0171419 0
0.242054 -0.00652402 0
0.25023 0.00295297 0
0.252809 -0.00124206 0
0.255255 -0.00400525 0
0.221983 -0.0109359 0
0.249311 0.00300747 0
0.251133 0.000641977 0
0.25371 -0.00543379 0
0.210729 -0.00704932 0
0.218627 -0.00808056 0
0.253762 -0.00340641 0
0.238465 -0.017513 0
0.250726 0.000445879 0
0.210114 -0.0103502 0
0.222544 -0.0110902 0
0.174423 0.000450162 0
0.252236 -0.00299172 0
0.119157 -0.0124244 0
0.247158 0.00166935 0
0.257559 -0.0198099 0
0.203136 -0.00866712 0
0.219 -0.00769945 0
0.251711 -0.00441212 0
0.248199 -8.29291e-05 0
0.255175 -0.0073512 0
0.245587 0.00292967 0
0.249486 -0.00348024 0
0.219816 -0.00803812 0
0.200289 -0.0137779 0
0.245975 -0.000206202 0
0.214365 -0.0108071 0
0.203103 -0.00613091 0
0.248493 0.000139361 0
0.253992 -0.0126079 0
0.229759 -0.00810209 0
0.274371 -0.0207884 0
0.217205 -0.0114142 0
0.228483 -0.0140867 0
0.237965 0.005999 0
0.218469 -0.0161241 0
0.194075 -0.0154375 0
0.253128 -0.00870278 0
0.244312 -0.00064541 0
0.249902 -0.00601985 0
0.234064 -0.0181515 0
0.21995 -0.0151992 0
0.153912 -0.0145484 0
0.255077 -0.0131675 0
0.191507 0.00342631 0
0.246679 -0.00528553 0
0.250022 -0.0106245 0
0.20132 -0.0312996 0
0.247382 -0.0020356 0
0.251017 -0.0148317 0
0.219913 -0.0145673 0
0.225817 -0.0132606 0
0.202802 -0.0178278 0
0.251884 -0.0111479 0
0.24467 -0.00690362 0
-9.85973e-05 -0.000132475 0
0.249725 -0.00909961 0
0.241075 -0.0143822 0
0.242086 -0.00411514 0
0.22049 -0.0164334 0
0.227886 -0.0147096 0
0.241647 -0.0041375 0
0.242189 -0.00417171 0
0.0636633 -0.00730202 0
0.216895 -0.0176319 0
0.242082 -0.00450054 0
0.250425 -0.0139317 0
0.216397 -0.0181283 0
0.217009 -0.0181708 0
0.242349 -0.00209289 0
0.250942 -0.0166502 0
0.217138 -0.0187111 0
0.244557 -0.0100704 0
0.24774 -0.0127246 0
0.242036 -0.00541089 0
0.218017 -0.0183874 0
0.250881 -0.0155801 0
0.218192 -0.0178592 0
0.240996 -0.00756869 0
0.218543 -0.0181112 0
0.230985 -0.0171164 0
0.241579 -0.00789504 0
0.22246 -0.0174673 0
0.218331 -0.0186543 0
0.20994 -0.0175681 0
0.113978 -0.0168094 0
0.245187 -0.00689111 0
0.202689 -0.0207284 0
0.216879 -0.0200836 0
0.190651 -0.0211259 0
0.242458 -0.00917307 0
0.219 -0.0190692 0
0.24789 -0.0149183 0
0.210896 -0.0212891 0
0.21393 -0.0204489 0
0.242406 -0.0101979 0
0.218772 -0.020207 0
0.24537 -0.013421 0
0.234156 -0.0180702 0
0.241259 -0.0123813 0
0.250518 -0.0186533 0
0.220234 -0.0216437 0
0.249644 -0.0204345 0
0.196553 -0.024566 0
0.225187 -0.0193124 0
0.248978 -0.0168115 0
0.238157 -0.0173846 0
0.221957 -0.0157815 0
0.247213 -0.0190085 0
0.24745 -0.0221231 0
0.241665 -0.0150012 0
0.221343 -0.0211598 0
0.238121 -0.022533 0
0.202477 -0.0228368 0
0.237041 -0.0125167 0
0.244626 -0.0186082 0
0.216222 -0.0225494 0
0.2414 -0.0163383 0
0.237513 -0.0122694 0
0.216048 -0.0233486 0
0.221821 -0.0238683 0
0.216253 -0.0237769 0
0.190165 -0.02369 0
0.236996 -0.0118897 0
0.246774 -0.0220387 0
0.249984 -0.0266052 0
0.217135 -0.0246581 0
0.241036 -0.0164198 0
0.237364 -0.0143121 0
0.222378 -0.0241172 0
0.228526 -0.0250663 0
0.217191 -0.0245806 0
0.211057 -0.0264165 0
0.239962 -0.0231165 0
0.237678 -0.0155108 0
0.24163 -0.0210445 0
0.219683 -0.0303461 0
0.223191 -0.0263593 0
0.243102 -0.0162385 0
0.237177 -0.018819 0
0.203031 -0.0311217 0
0.244148 -0.0257732 0
0.241412 -0.0216704 0
0.218113 -0.024824 0
0.118339 -0.0161185 0
0.152475 -0.0199224 0
0.24591 -0.0285333 0
0.224104 -0.027268 0
0.205998 -0.0281782 0
0.238841 -0.0213934 0
0.246182 -0.0284544 0
0.241988 -0.0278555 0
0.188888 -0.0255111 0
0.24845 -0.0300248 0
0.220615 -0.0291391 0
0.241117 -0.0266312 0
0.215285 -0.0306943 0
0.232439 -0.0187912 0
0.216489 -0.0306125 0
0.214833 -0.0295641 0
0.225318 -0.0294265 0
0.194687 -0.0279384 0
0.231956 -0.0193044 0
0.233617 -0.0298768 0
0.216077 -0.0310864 0
0.238467 -0.0252514 0
0.209742 -0.0244298 0
0.232674 -0.0205617 0
0.218074 -0.0326013 0
0.231396 -0.0188235 0
0.215719 -0.0307254 0
0.24046 -0.0274887 0
0.232516 -0.0209919 0
0.215341 -0.0311789 0
0.232554 -0.0210236 0
0.216104 -0.0311193 0
0.200478 -0.0298411 0
0.233879 -0.0234954 0
0.209489 -0.0311833 0
0.243611 -0.0328721 0
0.216025 -0.0306382 0
0.242463 -0.0319097 0
0.232474 -0.0230755 0
0.221505 -0.0314053 0
0.216687 -0.0322397 0
0.226704 -0.0308313 0
0.236405 -0.0269282 0
0.233497 -0.0264672 0
0.240064 -0.0313552 0
0.243879 -0.034283 0
0.21038 -0.0260299 0
-0.00016992 -0.000973241 0
0.217101 -0.0335472 0
0.233456 -0.0275106 0
0.187909 -0.0284634 0
0.217537 -0.0322875 0
0.2329 -0.0265898 0
0.22724 -0.0245604 0
0.217174 -0.034218 0
0.228174 -0.034676 0
0.239128 -0.0334781 0
0.242534 -0.0341507 0
0.237857 -0.0323923 0
0.217865 -0.0338401 0
0.222897 -0.0348221 0
0.241988 -0.0373642 0
0.194992 -0.0304965 0
0.233451 -0.0307737 0
0.242872 -0.0392375 0
0.237953 -0.0370153 0
0.11942 -0.0185737 0
0.218924 -0.0362151 0
0.212094 -0.035589 0
0.232935 -0.0320186 0
0.206922 -0.0310655 0
0.23889 -0.0375752 0
0.214034 -0.0378749 0
0.227329 -0.0280925 0
0.230382 -0.038287 0
0.243239 -0.0412917 0
0.212356 -0.0362815 0
0.21847 -0.0361464 0
0.232765 -0.0339049 0
0.22674 -0.0288409 0
0.206999 -0.0360216 0
0.187018 -0.0330289 0
0.213513 -0.0366406 0
0.227168 -0.030349 0
0.193967 -0.0346723 0
0.235741 -0.0379357 0
0.202726 -0.036404 0
0.232436 -0.0355013 0
0.213811 -0.038821 0
0.220281 -0.0387088 0
0.226653 -0.0312706 0
0.240545 -0.0424982 0
0.224524 -0.0403413 0
0.238471 -0.0408283 0
0.226398 -0.0329208 0
0.215693 -0.0414717 0
0.19762 -0.0371487 0
0.231364 -0.0378701 0
0.231918 -0.0379505 0
0.220712 -0.0417118 0
0.153041 -0.0273364 0
0.226371 -0.0350383 0
0.23244 -0.0411845 0
0.216013 -0.0408843 0
0.0621904 -0.00855521 0
0.236806 -0.0453269 0
0.227324 -0.0370084 0
0.185685 -0.035264 0
0.221026 -0.043881 0
0.232999 -0.0455434 0
0.231661 -0.0427961 0
0.241286 -0.0457264 0
0.2081 -0.0431356 0
0.210031 -0.0424016 0
0.209634 -0.0421831 0
0.209511 -0.0428094 0
0.23438 -0.046202 0
0.20949 -0.0428858 0
0.21665 -0.044379 0
0.238284 -0.0480459 0
0.21038 -0.0419935 0
0.22633 -0.0412271 0
0.209339 -0.0448714 0
0.21036 -0.044426 0
0.206214 -0.0373697 0
0.195164 -0.0415242 0
0.220517 -0.0375497 0
0.221848 -0.0452902 0
0.210427 -0.0445753 0
0.115879 -0.0176506 0
0.230806 -0.0457115 0
0.219735 -0.0368699 0
0.2294 -0.0486919 0
0.210844 -0.0437703 0
0.220731 -0.0380853 0
0.225752 -0.0463856 0
0.213976 -0.0463001 0
0.222025 -0.0387354 0
0.22062 -0.0392693 0
0.223878 -0.0508663 0
0.225328 -0.0415699 0
0.221074 -0.0408598 0
0.201562 -0.0419381 0
0.204341 -0.0435339 0
0.220481 -0.0405605 0
0.220565 -0.0491502 0
0.230136 -0.04779 0
0.189324 -0.040037 0
0.224132 -0.0435179 0
0.184665 -0.0388459 0
0.230113 -0.0498805 0
0.223927 -0.0502571 0
0.212795 -0.0473755 0
0.219191 -0.0408676 0
0.23334 -0.0538943 0
0.212552 -0.0467723 0
0.223759 -0.0458496 0
0.23279 -0.0526713 0
-0.000169684 -0.000225279 0
0.220497 -0.0448399 0
0.220372 -0.0412831 0