# vtk DataFile Version 3.0
File generated from DClib
ASCII

DATASET UNSTRUCTURED_GRID
POINTS 1909 float
50 0 0 
48.75 0 0 
50 1.66667 0 
47.5 0 0 
50 3.33333 0 
46.25 0 0 
50 5 0 
45 0 0 
43.75 0 0 
50 6.66667 0 
43 2 0 
42.5 0 0 
50 8.33333 0 
43 4.66667 0 
41.25 0 0 
41.075 2 0 
50 10 0 
40 0 0 
43 7.33333 0 
39.15 2 0 
38.75 0 0 
43 10 0 
37.5 0 0 
37.225 2 0 
36.25 0 0 
36 4 0 
35.3 2 0 
36 5 0 
35 0 0 
35.325 4 0 
36 6 0 
36 7 0 
34.65 4 0 
36 8 0 
33.75 0 0 
33.975 4 0 
36 9 0 
33.375 2 0 
33.3 4 0 
36 10 0 
32.5 0 0 
32.625 4 0 
33 6 0 
31.95 4 0 
33 7.45455 0 
31.45 2 0 
31.25 0 0 
31.95 6 0 
33 8.79545 0 
31.275 4 0 
33 10 0 
30.6 4 0 
30 0 0 
30.9 6 0 
29.925 4 0 
29.525 2 0 
29.85 6 0 
29.25 4 0 
28.75 0 0 
30 8 0 
30 8.45455 0 
28.575 4 0 
29.625 8 0 
30 8.90909 0 
28.8 6 0 
30 9.25 0 
29.782 8.90909 0 
30 9.59091 0 
29.9487 9.59091 0 
29.25 8 0 
29.7462 9.25 0 
30 9.79545 0 
29.897 9.59091 0 
29.564 8.90909 0 
29.9547 9.79545 0 
29.3462 8.45455 0 
29.84 9.59091 0 
30 10 0 
29.8975 9.79545 0 
29.9882 10 0 
29.9902 10.0098 0 
29.7827 9.59091 0 
29.9765 10 0 
29.9804 10.0196 0 
29.9667 10.0098 0 
29.9591 10 0 
29.9686 10.0196 0 
29.9659 10.0341 0 
29.9569 10.0196 0 
29.9418 10 0 
29.9395 10.0196 0 
29.9515 10.0485 0 
29.932 10.0098 0 
29.9424 10.0341 0 
29.8241 9.79545 0 
29.7181 9.59091 0 
29.9166 10 0 
29.9397 10.0485 0 
29.9222 10.0196 0 
29.9279 10.0485 0 
29.9305 10.0695 0 
29.8914 10 0 
29.9077 10.0341 0 
27.9 4 0 
29.897 10.0196 0 
29.9106 10.0485 0 
29.8817 10.0098 0 
29.907 10.0695 0 
29.8933 10.0485 0 
29.9095 10.0905 0 
29.8719 10.0196 0 
27.6 2 0 
29.8556 10 0 
29.8978 10.0905 0 
29.6531 9.59091 0 
29.3437 8.90909 0 
27.5 0 0 
29.8681 10.0485 0 
29.886 10.0905 0 
29.8574 10.0341 0 
29.4839 9.25 0 
29.8723 10.0695 0 
29.7289 9.79545 0 
29.836 10.0196 0 
29.8687 10.0905 0 
29.8197 10 0 
29.8797 10.1203 0 
29.843 10.0485 0 
29.8513 10.0905 0 
29.81 10.0098 0 
29.8561 10.1203 0 
29.8002 10.0196 0 
29.8221 10.0695 0 
29.8072 10.0485 0 
29.8262 10.0905 0 
29.5782 9.59091 0 
29.8498 10.1502 0 
29.7695 10 0 
29.7858 10.0341 0 
29.838 10.1502 0 
29.8215 10.1203 0 
29.8011 10.0905 0 
29.8262 10.1502 0 
29.7714 10.0485 0 
28.875 8 0 
29.75 10.0196 0 
29.8089 10.1502 0 
29.7654 10.0905 0 
29.7193 10 0 
29.7916 10.1502 0 
29.7505 10.0695 0 
29.8079 10.1921 0 
29.7713 10.1203 0 
29.7096 10.0098 0 
29.6047 9.79545 0 
29.503 9.59091 0 
29.7213 10.0485 0 
29.7665 10.1502 0 
29.6999 10.0196 0 
29.7844 10.1921 0 
29.7296 10.0905 0 
29.6856 10.0341 0 
29.7414 10.1502 0 
29.7497 10.1921 0 
29.6503 10 0 
29.7661 10.2339 0 
29.6712 10.0485 0 
29.6999 10.1203 0 
29.7543 10.2339 0 
29.6796 10.0905 0 
29.7057 10.1502 0 
29.7425 10.2339 0 
29.1235 8.90909 0 
29.6309 10.0196 0 
29.6504 10.0695 0 
29.4146 9.59091 0 
29.7252 10.2339 0 
29.6996 10.1921 0 
29.6701 10.1502 0 
29.7079 10.2339 0 
29.6296 10.0905 0 
29.5813 10 0 
29.6023 10.0485 0 
29.5716 10.0098 0 
29.6828 10.2339 0 
29.7086 10.2914 0 
29.2101 9.25 0 
29.562 10.0196 0 
29.6201 10.1502 0 
29.6578 10.2339 0 
29.4428 9.79545 0 
29.5999 10.1203 0 
29.6849 10.2914 0 
29.6283 10.1921 0 
29.5477 10.0341 0 
29.3259 9.59091 0 
29.5608 10.0905 0 
29.5335 10.0485 0 
29.6221 10.2339 0 
29.6503 10.2914 0 
29.5702 10.1502 0 
29.4881 10 0 
29.5128 10.0695 0 
29.6511 10.3489 0 
29.5866 10.2339 0 
29.6392 10.3489 0 
29.4689 10.0196 0 
29.6002 10.2914 0 
29.6273 10.3489 0 
29.4921 10.0905 0 
29.61 10.3489 0 
29.5286 10.1921 0 
29.5016 10.1502 0 
29.5368 10.2339 0 
29.5926 10.3489 0 
29.4405 10.0485 0 
29.2199 9.59091 0 
29.4626 10.1203 0 
29.3949 10 0 
28.9 8.90909 0 
29.5676 10.3489 0 
29.5291 10.2914 0 
29.3853 10.0098 0 
28.6923 8.45455 0 
29.487 10.2339 0 
29.5426 10.3489 0 
29.3758 10.0196 0 
29.5734 10.4266 0 
29.4331 10.1502 0 
29.3993 10.0905 0 
28.5 8 0 
29.3617 10.0341 0 
29.5496 10.4266 0 
29.5071 10.3489 0 
29.2327 9.79545 0 
29.3475 10.0485 0 
29.1136 9.59091 0 
29.4187 10.2339 0 
29.5148 10.4266 0 
29.4716 10.3489 0 
29.3918 10.1921 0 
29.3271 10.0695 0 
29.4298 10.2914 0 
29.2714 10 0 
29.3406 10.1502 0 
28.9208 9.25 0 
29.3066 10.0905 0 
29.4648 10.4266 0 
29.422 10.3489 0 
29.4958 10.5042 0 
29.2524 10.0196 0 
27.75 6 0 
29.3504 10.2339 0 
29.4837 10.5042 0 
29.4718 10.5042 0 
29.2774 10.1203 0 
29.4543 10.5042 0 
29.3724 10.3489 0 
29.2244 10.0485 0 
29.4369 10.5042 0 
29.3938 10.4266 0 
28.9853 9.59091 0 
29.2481 10.1502 0 
28.6766 8.90909 0 
29.4119 10.5042 0 
29.2934 10.2914 0 
27.225 4 0 
29.148 10 0 
29.2582 10.2339 0 
29.1837 10.0905 0 
29.3869 10.5042 0 
29.1385 10.0098 0 
29.3044 10.3489 0 
29.1291 10.0196 0 
29.2072 10.1921 0 
29.3514 10.5042 0 
29.1152 10.0341 0 
29.3929 10.6071 0 
29.2949 10.4266 0 
29.1013 10.0485 0 
29.3686 10.6071 0 
29.316 10.5042 0 
29.2364 10.3489 0 
28.9623 9.79545 0 
29.1257 10.1502 0 
29.1662 10.2339 0 
29.0811 10.0695 0 
28.8566 9.59091 0 
29.3336 10.6071 0 
29.2666 10.5042 0 
29.0609 10.0905 0 
28.9875 10 0 
29.2835 10.6071 0 
29.1448 10.3489 0 
29.0321 10.1203 0 
29.2173 10.5042 0 
29.1098 10.2914 0 
28.125 8 0 
28.9688 10.0196 0 
29.1594 10.4266 0 
28.611 9.25 0 
29.29 10.71 0 
28.4486 8.90909 0 
29.0443 10.2339 0 
29.0033 10.1502 0 
29.2777 10.71 0 
28.9413 10.0485 0 
29.2128 10.6071 0 
29.2655 10.71 0 
29.1497 10.5042 0 
29.2478 10.71 0 
28.7003 9.59091 0 
29.0533 10.3489 0 
29.2303 10.71 0 
28.9629 10.1921 0 
28.9013 10.0905 0 
29.2051 10.71 0 
29.0822 10.5042 0 
29.1801 10.71 0 
28.827 10 0 
29.1144 10.6071 0 
28.8177 10.0098 0 
28.9225 10.2339 0 
28.8085 10.0196 0 
29.1447 10.71 0 
28.7949 10.0341 0 
28.8443 10.1502 0 
28.977 10.4266 0 
28.9322 10.3489 0 
29.1094 10.71 0 
28.7813 10.0485 0 
28.9912 10.5042 0 
29.1562 10.8438 0 
28.5436 9.59091 0 
28.7615 10.0695 0 
28.8669 10.2914 0 
29.1313 10.8438 0 
28.6184 9.79545 0 
29.0602 10.71 0 
28.2207 8.90909 0 
28.7418 10.0905 0 
28.0378 8.45455 0 
28.9798 10.6071 0 
29.0958 10.8438 0 
29.0112 10.71 0 
28.9005 10.5042 0 
28.7136 10.1203 0 
28.7644 10.2339 0 
28.8113 10.3489 0 
29.0454 10.8438 0 
28.6223 10 0 
28.6854 10.1502 0 
28.2746 9.25 0 
28.9441 10.71 0 
28.6042 10.0196 0 
27.75 8 0 
28.9747 10.8438 0 
28.6459 10.1921 0 
28.5773 10.0485 0 
29.0225 10.9775 0 
28.3532 9.59091 0 
28.7804 10.5042 0 
28.736 10.4266 0 
28.8772 10.71 0 
29.0097 10.9775 0 
28.9971 10.9775 0 
28.799 10.6071 0 
28.9791 10.9775 0 
28.5384 10.0905 0 
28.6064 10.2339 0 
28.6543 10.3489 0 
28.9611 10.9775 0 
28.8769 10.8438 0 
27.9867 8.90909 0 
26.25 0 0 
28.9358 10.9775 0 
28.7871 10.71 0 
28.9106 10.9775 0 
28.6607 10.5042 0 
28.4177 10 0 
26.55 4 0 
28.552 10.2914 0 
28.483 10.1502 0 
28.4087 10.0098 0 
28.8751 10.9775 0 
28.3998 10.0196 0 
28.3866 10.0341 0 
28.8399 10.9775 0 
28.6974 10.71 0 
28.3735 10.0485 0 
28.1625 9.59091 0 
28.7436 10.8438 0 
28.4976 10.3489 0 
28.3543 10.0695 0 
28.791 10.9775 0 
28.4052 10.2339 0 
28.3352 10.0905 0 
28.8519 11.1481 0 
28.1869 9.79545 0 
28.5607 10.6071 0 
28.5053 10.5042 0 
28.7423 10.9775 0 
28.8258 11.1481 0 
28.308 10.1203 0 
28.5787 10.71 0 
27.904 9.25 0 
28.7893 11.1481 0 
28.424 10.4266 0 
27.7528 8.90909 0 
28.2807 10.1502 0 
28.6758 10.9775 0 
27.375 8 0 
28.7383 11.1481 0 
28.1619 10 0 
28.5649 10.8438 0 
28.2425 10.1921 0 
28.6096 10.9775 0 
28.1444 10.0196 0 
28.298 10.3489 0 
28.4605 10.71 0 
26.7 6 0 
27.9315 9.59091 0 
28.3503 10.5042 0 
28.6676 11.1481 0 
28.1187 10.0485 0 
28.2042 10.2339 0 
28.5207 10.9775 0 
28.0813 10.0905 0 
28.6814 11.3186 0 
27.3818 8.45455 0 
28.6679 11.3186 0 
28.1516 10.2914 0 
28.5703 11.1481 0 
28.6544 11.3186 0 
28.6358 11.3186 0 
27.5109 8.90909 0 
28.3072 10.71 0 
28.6173 11.3186 0 
28.2524 10.6071 0 
28.4322 10.9775 0 
28.028 10.1502 0 
28.5915 11.3186 0 
28.0989 10.3489 0 
28.33 10.8438 0 
28.5658 11.3186 0 
28.153 10.5042 0 
27.9061 10 0 
27.8975 10.0098 0 
28.5303 11.3186 0 
28.4384 11.1481 0 
27.7002 9.59091 0 
27.889 10.0196 0 
27.8765 10.0341 0 
28.4949 11.3186 0 
28.3154 10.9775 0 
27.9532 10.2339 0 
27.8639 10.0485 0 
28.0276 10.4266 0 
28.1544 10.71 0 
27.8457 10.0695 0 
27.4909 9.25 0 
28.4463 11.3186 0 
27 8 0 
27.8275 10.0905 0 
28.3979 11.3186 0 
27.8015 10.1203 0 
27.6542 9.79545 0 
25.675 2 0 
28.1991 10.9775 0 
27.2691 8.90909 0 
27.9563 10.5042 0 
28.4682 11.5318 0 
28.2625 11.1481 0 
27.7755 10.1502 0 
28.3322 11.3186 0 
27.8502 10.3489 0 
28.4401 11.5318 0 
25.875 4 0 
27.7391 10.1921 0 
28.4019 11.5318 0 
28.0268 10.8438 0 
28.2668 11.3186 0 
27.9602 10.71 0 
28.3498 11.5318 0 
27.4223 9.59091 0 
27.7026 10.2339 0 
27.5927 10 0 
28.0486 10.9775 0 
27.8616 10.6071 0 
27.5762 10.0196 0 
28.1794 11.3186 0 
28.2786 11.5318 0 
27.5519 10.0485 0 
27.6524 10.2914 0 
28.0319 11.1481 0 
27.7108 10.5042 0 
27.5167 10.0905 0 
27.0169 8.90909 0 
28.0924 11.3186 0 
27.6021 10.3489 0 
27.8988 10.9775 0 
28.1818 11.5318 0 
27.7667 10.71 0 
26.625 8 0 
28.255 11.745 0 
27.4664 10.1502 0 
28.2402 11.745 0 
28.2256 11.745 0 
28.2059 11.745 0 
27.978 11.3186 0 
26.7234 8.45455 0 
27.0259 9.25 0 
27.5342 10.4266 0 
28.1863 11.745 0 
27.1442 9.59091 0 
28.0516 11.5318 0 
28.1598 11.745 0 
27.3959 10.2339 0 
28.1334 11.745 0 
27.2793 10 0 
27.2714 10.0098 0 
27.2635 10.0196 0 
27.7086 10.9775 0 
27.6431 10.8438 0 
28.0975 11.745 0 
27.8643 11.3186 0 
27.4661 10.5042 0 
27.2518 10.0341 0 
27.2401 10.0485 0 
28.0617 11.745 0 
26.7648 8.90909 0 
27.5255 10.71 0 
27.7353 11.1481 0 
27.2231 10.0695 0 
28.0133 11.745 0 
27.2061 10.0905 0 
27.8791 11.5318 0 
27.2986 10.3489 0 
27.1818 10.1203 0 
27.9651 11.745 0 
27.3758 10.6071 0 
27.0077 9.79545 0 
27.7174 11.3186 0 
27.1576 10.1502 0 
25 0 0 
27.5193 10.9775 0 
27.9003 11.745 0 
27.1236 10.1921 0 
26.25 8 0 
27.9939 12.0061 0 
25.65 6 0 
27.8359 11.745 0 
26.8136 9.59091 0 
27.0896 10.2339 0 
27.9626 12.0061 0 
27.2853 10.71 0 
25.2 4 0 
27.5713 11.3186 0 
27.9218 12.0061 0 
26.4998 8.90909 0 
27.167 10.5042 0 
27.6541 11.5318 0 
27.0427 10.2914 0 
27.7503 11.745 0 
26.9033 10 0 
27.8677 12.0061 0 
26.8882 10.0196 0 
26.8659 10.0485 0 
26.9958 10.3489 0 
27.2836 10.9775 0 
27.6652 11.745 0 
27.3609 11.1481 0 
27.7955 12.0061 0 
26.499 9.25 0 
[...]
POINT_DATA 1909
SCALARS phi float 1
LOOKUP_TABLE default
VECTORS Displacement float
0 0 0
0 0 0
0 -0.0011157 0
0 0 0
0 -0.000490623 0
0 0 0
0 0.00169235 0
0 0 0
0 0 0
0 0.00529577 0
0.0100842 -0.000459585 0
0 0 0
0 0.0101574 0
0.019255 0.00348789 0
0 0 0
0.0135548 -0.000456713 0
0 0.0160116 0
0 0 0
0.025719 0.0114194 0
0.0172369 -0.000530545 0
0 0 0
0.0293793 0.0218757 0
0 0 0
0.021024 -0.000721623 0
0 0 0
0.0394517 0.00244962 0
0.0247046 -0.00100854 0
0.0470585 0.0054419 0
0 0 0
0.0422946 0.00222937 0
0.0525548 0.00930104 0
0.0563792 0.0137406 0
0.0449614 0.00200057 0
0.0590069 0.0183496 0
0 0 0
0.0475745 0.00165743 0
0.0607608 0.023046 0
0.0280947 -0.00136499 0
0.0500468 0.00129223 0
0.0618899 0.0277136 0
0 0 0
0.0523824 0.000868641 0
0.0680183 0.00768554 0
0.0545697 0.000421442 0
0.0752811 0.0148971 0
0.0310589 -0.00177666 0
0 0 0
0.0733132 0.00560847 0
0.0787933 0.0231762 0
0.0566002 -6.35247e-05 0
0.0792074 0.0319088 0
0.0584665 -0.000572228 0
0 0 0
0.0775168 0.00375394 0
0.0601713 -0.00110929 0
0.0334923 -0.00224327 0
0.0810237 0.00187383 0
0.0617022 -0.00167516 0
0 0 0
0.0955061 0.00817726 0
0.0982889 0.010181 0
0.0630678 -0.00226429 0
0.0971983 0.00683674 0
0.101055 0.0124766 0
0.0839006 -8.92017e-05 0
0.102728 0.0148027 0
0.102366 0.0113291 0
0.104046 0.0177856 0
0.104459 0.0168826 0
0.0986791 0.00553999 0
0.104331 0.0129205 0
0.104253 0.0206083 0
0.104863 0.0162038 0
0.103536 0.0101993 0
0.104653 0.0194564 0
0.101453 0.00740667 0
0.105256 0.0155992 0
0.104065 0.0239825 0
0.105204 0.0183657 0
0.104266 0.0240594 0
0.118086 0.0290384 0
0.105623 0.0150601 0
0.104489 0.0240556 0
0.125038 0.0312254 0
0.117678 0.028724 0
0.104819 0.0239081 0
0.124603 0.030948 0
0.125859 0.0310474 0
0.124109 0.0305805 0
0.105167 0.023742 0
0.12334 0.0300052 0
0.125863 0.0307109 0
0.117075 0.0278982 0
0.125486 0.0304028 0
0.105948 0.017361 0
0.106011 0.0145278 0
0.105647 0.0232694 0
0.125838 0.0304071 0
0.122565 0.0293991 0
0.125811 0.0301053 0
0.125953 0.0302684 0
0.10612 0.0228174 0
0.124629 0.0293972 0
0.0642509 -0.00289255 0
0.12163 0.0284502 0
0.125714 0.0296717 0
0.116456 0.0263974 0
0.125888 0.029661 0
0.125559 0.029199 0
0.125877 0.0297728 0
0.120795 0.0275544 0
0.0352924 -0.00277405 0
0.106738 0.022043 0
0.125845 0.0294596 0
0.106386 0.0140446 0
0.104616 0.00912456 0
0 0 0
0.125246 0.0284656 0
0.125809 0.0291364 0
0.123319 0.0277735 0
0.105761 0.0113136 0
0.125764 0.0286944 0
0.106881 0.016375 0
0.119896 0.0262822 0
0.12575 0.0286405 0
0.107311 0.0213258 0
0.12581 0.0290471 0
0.124813 0.0277104 0
0.125695 0.0281393 0
0.115926 0.0243005 0
0.125741 0.0283726 0
0.119163 0.0251513 0
0.125418 0.0272363 0
0.124156 0.0266094 0
0.125609 0.02742 0
0.10683 0.01355 0
0.125741 0.0282814 0
0.108032 0.0203719 0
0.121694 0.0255004 0
0.1257 0.0279378 0
0.125634 0.0273766 0
0.125526 0.0267214 0
0.125659 0.0275968 0
0.123444 0.0255696 0
0.100088 0.00425174 0
0.118405 0.0237136 0
0.125601 0.0271025 0
0.125361 0.0257884 0
0.108672 0.0194922 0
0.125543 0.0266218 0
0.124615 0.0252867 0
0.125663 0.0272059 0
0.12549 0.0260125 0
0.115535 0.0218595 0
0.107964 0.0153122 0
0.107273 0.0130845 0
0.122509 0.0242001 0
0.125465 0.0259495 0
0.117878 0.0224768 0
0.12559 0.0265448 0
0.125143 0.0249085 0
0.119995 0.0228277 0
0.125391 0.0253131 0
0.125485 0.0256214 0
0.109447 0.0184741 0
0.125605 0.026171 0
0.121651 0.022973 0
0.125279 0.0242904 0
0.125568 0.0258528 0
0.124751 0.0237727 0
0.125297 0.0244608 0
0.125533 0.0255435 0
0.105599 0.00809052 0
0.117348 0.0210206 0
0.123252 0.0229195 0
0.107802 0.0125764 0
0.125482 0.025102 0
0.125345 0.0243992 0
0.12522 0.023677 0
0.125435 0.0246782 0
0.124258 0.0227224 0
0.110111 0.0175214 0
0.120655 0.0214731 0
0.11532 0.0193101 0
0.125369 0.0240937 0
0.125574 0.0248434 0
0.107151 0.00986411 0
0.117043 0.0197661 0
0.125107 0.022677 0
0.125309 0.0235418 0
0.109184 0.014125 0
0.124826 0.0222618 0
0.125512 0.0242719 0
0.125178 0.0228803 0
0.118558 0.0200223 0
0.108333 0.0120829 0
0.123525 0.0214098 0
0.119878 0.0201715 0
0.125227 0.022807 0
0.125426 0.0234883 0
0.124989 0.0217709 0
0.110891 0.0164949 0
0.121515 0.0202638 0
0.125536 0.0236223 0
0.125151 0.0221251 0
0.125511 0.0233597 0
0.116712 0.0183565 0
0.125313 0.0224566 0
0.125486 0.0231048 0
0.122767 0.0202216 0
0.125451 0.0227419 0
0.125001 0.0210954 0
0.124756 0.0206547 0
0.125055 0.0212442 0
0.125417 0.0223931 0
0.119071 0.0186791 0
0.108948 0.0115082 0
0.123845 0.0199719 0
0.111551 0.0155152 0
0.106531 0.00708266 0
0.12537 0.0219103 0
0.125172 0.0211582 0
0.115277 0.0167798 0
0.104044 0.00486058 0
0.124972 0.0204432 0
0.125326 0.0214515 0
0.116573 0.0171204 0
0.125568 0.0221523 0
0.124435 0.0196375 0
0.121821 0.0187964 0
0.101355 0.00294846 0
0.117601 0.0172823 0
0.125524 0.0216904 0
0.125266 0.020835 0
0.110546 0.0127565 0
0.11854 0.0173928 0
0.10956 0.0109399 0
0.124871 0.0194431 0
0.125463 0.0210556 0
0.12521 0.0202569 0
0.124725 0.0190943 0
0.119864 0.0175092 0
0.125005 0.0196035 0
0.112328 0.0144841 0
0.123905 0.0184152 0
0.108531 0.00843754 0
0.121029 0.0175469 0
0.125383 0.0202105 0
0.125135 0.0195063 0
0.125592 0.0208201 0
0.11642 0.0157685 0
0.0861375 -0.0021507 0
0.124786 0.0185514 0
0.125576 0.0206111 0
0.12556 0.0204071 0
0.122343 0.0174763 0
0.125537 0.0201168 0
0.125065 0.0188139 0
0.118069 0.0159794 0
0.125515 0.0198354 0
0.125282 0.0191303 0
0.11026 0.0102555 0
0.123298 0.0173058 0
0.107414 0.00608843 0
0.125484 0.0194447 0
0.12483 0.0178419 0
0.0652607 -0.00354045 0
0.113009 0.0134825 0
0.124633 0.0174873 0
0.12021 0.0161092 0
0.125454 0.0190702 0
0.115498 0.0143095 0
0.124976 0.0179476 0
0.116449 0.0145523 0
0.124061 0.0169417 0
0.125412 0.0185644 0
0.117178 0.0146569 0
0.12569 0.0192544 0
0.12516 0.0178166 0
0.117835 0.0147266 0
0.125664 0.0188847 0
0.125372 0.0180873 0
0.124897 0.0171682 0
0.112073 0.0111247 0
0.122525 0.0159855 0
0.124436 0.0165313 0
0.118777 0.0148049 0
0.110945 0.00957075 0
0.125629 0.0183762 0
0.125319 0.017465 0
0.11967 0.0148474 0
0.113845 0.0123844 0
0.125582 0.0176969 0
0.124804 0.0162217 0
0.120841 0.0148494 0
0.125272 0.0168918 0
0.12463 0.0159424 0
0.102525 0.00162594 0
0.116533 0.0131946 0
0.125023 0.0163115 0
0.109903 0.00694068 0
0.125775 0.0178331 0
0.108262 0.00507985 0
0.124093 0.0153871 0
0.121851 0.0147826 0
0.125766 0.0176662 0
0.117715 0.0133202 0
0.125524 0.0168281 0
0.125757 0.0175037 0
0.125215 0.0161703 0
0.125745 0.0172736 0
0.111717 0.00873375 0
0.12473 0.0153699 0
0.125733 0.0170518 0
0.122922 0.0145817 0
0.119232 0.0133813 0
0.125717 0.0167447 0
0.125168 0.0155123 0
0.125703 0.0164524 0
0.11462 0.0113019 0
0.125456 0.0157719 0
0.116122 0.0117773 0
0.123663 0.0143001 0
0.116748 0.0119169 0
0.125685 0.0160587 0
0.117262 0.0119679 0
0.121175 0.0133155 0
0.124884 0.0146283 0
0.124624 0.0143212 0
0.12567 0.0156884 0
0.117733 0.0119975 0
0.125114 0.0146897 0
0.126009 0.0162234 0
0.112454 0.00788985 0
0.118392 0.0120217 0
0.124227 0.0138253 0
0.125999 0.0159361 0
0.113772 0.00910923 0
0.125652 0.0152027 0
0.109057 0.00406761 0
0.119022 0.0120257 0
0.10615 0.00225864 0
0.125383 0.0145198 0
0.125984 0.0155485 0
0.125637 0.0147433 0
0.12506 0.0139087 0
0.119888 0.0120031 0
0.123111 0.0129308 0
0.124504 0.0133166 0
0.125966 0.0150357 0
0.115588 0.0100173 0
0.120708 0.0119467 0
0.111247 0.00530558 0
0.125621 0.014148 0
0.117066 0.0104017 0
0.103548 0.000287366 0
0.125946 0.0143707 0
0.121726 0.011806 0
0.117879 0.0104334 0
0.12619 0.0147928 0
0.113269 0.00685488 0
0.12499 0.0129093 0
0.124711 0.0126202 0
0.125603 0.0135713 0
0.12619 0.0146688 0
0.12619 0.0145475 0
0.125299 0.0129818 0
0.126192 0.0143784 0
0.118944 0.010408 0
0.122585 0.0116028 0
0.124282 0.0120478 0
0.126193 0.014213 0
0.125926 0.0135111 0
0.109812 0.00302179 0
0 0 0
0.126197 0.013985 0
0.125576 0.0128165 0
0.1262 0.0137617 0
0.124913 0.0119388 0
0.116484 0.00873724 0
0.0660766 -0.0042436 0
0.123441 0.0112331 0
0.120347 0.0102799 0
0.117115 0.00889577 0
0.126204 0.0134545 0
0.11746 0.00893964 0
0.117792 0.00893552 0
0.126207 0.0131524 0
0.125546 0.0120778 0
0.11811 0.00892255 0
0.114019 0.00580717 0
0.125904 0.0123913 0
0.124001 0.0108 0
0.118565 0.00889528 0
0.126207 0.0127411 0
0.12205 0.00994546 0
0.119004 0.00885626 0
0.126553 0.0132345 0
0.115571 0.0065856 0
0.125179 0.0110495 0
0.124798 0.0107066 0
0.126207 0.0123355 0
0.126555 0.0130089 0
0.119608 0.00878394 0
0.125503 0.0111186 0
0.112532 0.00347265 0
0.126557 0.0126989 0
0.124411 0.0101529 0
0.110501 0.00196255 0
0.12019 0.00869378 0
0.126205 0.0117884 0
0.104447 -0.00107035 0
0.126559 0.012272 0
0.117486 0.00711033 0
0.125871 0.0109367 0
0.120967 0.00853987 0
0.126203 0.0112493 0
0.117997 0.00714647 0
0.123624 0.00922515 0
0.125456 0.0101798 0
0.0877141 -0.00433435 0
0.114835 0.00452862 0
0.124677 0.00949739 0
0.126564 0.0116875 0
0.118506 0.00709054 0
0.121685 0.00835209 0
0.126198 0.0105332 0
0.11922 0.00698135 0
0.126849 0.0117807 0
0.107849 -0.00039221 0
0.12685 0.0116699 0
0.122542 0.00803967 0
0.126571 0.0108956 0
0.126852 0.01156 0
0.126855 0.0114078 0
0.111143 0.000855092 0
0.125391 0.00898144 0
0.126857 0.0112568 0
0.124997 0.00864152 0
0.126193 0.00982907 0
0.120196 0.00678121 0
0.126861 0.0110478 0
0.123242 0.00767351 0
0.125821 0.00907986 0
0.126865 0.0108405 0
0.124509 0.00798936 0
0.118341 0.00547511 0
0.118479 0.00544992 0
0.126869 0.0105545 0
0.12658 0.00983979 0
0.115553 0.00323265 0
0.118617 0.00542339 0
0.118804 0.00537751 0
0.126874 0.010271 0
0.126185 0.00891221 0
0.121454 0.00641876 0
0.118991 0.00532937 0
0.123906 0.00711074 0
0.125323 0.00780763 0
0.119268 0.00525797 0
0.113715 0.00138279 0
0.126881 0.00988316 0
0.105203 -0.002448 0
0.119559 0.0051877 0
0.126888 0.00949937 0
0.119961 0.00507759 0
0.117286 0.00341757 0
0.0363359 -0.00337861 0
0.126175 0.0080114 0
0.111705 -0.000269789 0
0.124334 0.00650588 0
0.127188 0.0100413 0
0.12659 0.00845791 0
0.120363 0.00496123 0
0.126898 0.00898151 0
0.122892 0.00577756 0
0.127191 0.00981793 0
0.0667046 -0.00495989 0
0.120901 0.0047804 0
0.127194 0.00951658 0
0.125748 0.00675508 0
0.126907 0.00846944 0
0.125233 0.00634194 0
0.127199 0.00910613 0
0.116302 0.00166228 0
0.121424 0.00458535 0
0.119157 0.00347023 0
0.12616 0.00686098 0
0.124747 0.00569237 0
0.11936 0.00339634 0
0.126919 0.00778956 0
0.127208 0.00854737 0
0.119658 0.00328156 0
0.122085 0.00428589 0
0.126598 0.00668312 0
0.124102 0.00469378 0
0.120097 0.00310986 0
0.112214 -0.00145723 0
0.12693 0.0071178 0
0.122695 0.00395863 0
0.126143 0.00573268 0
0.12722 0.0077924 0
0.125151 0.00490786 0
0.105836 -0.00385876 0
0.12735 0.00834987 0
0.120728 0.00284999 0
0.127352 0.00823526 0
0.127354 0.00812153 0
0.127356 0.00796859 0
0.126942 0.00624068 0
0.109098 -0.00314236 0
0.114735 -0.00102571 0
0.123371 0.00346591 0
0.127359 0.00781671 0
0.116918 6.91438e-05 0
0.127236 0.00678367 0
0.127363 0.00761052 0
0.12158 0.00244549 0
0.127367 0.00740563 0
0.11976 0.0014325 0
0.119852 0.00139213 0
0.119943 0.0013514 0
0.126114 0.00432301 0
0.125641 0.00391603 0
0.127373 0.00712681 0
0.126951 0.00537467 0
0.1239 0.00292614 0
0.120074 0.00129064 0
0.120205 0.00122901 0
0.127379 0.00684959 0
0.112634 -0.0026627 0
0.125039 0.00316684 0
0.12659 0.00444986 0
0.120394 0.00113819 0
0.127386 0.00647378 0
0.120581 0.00104505 0
0.127255 0.00545456 0
0.122641 0.00180857 0
0.120846 0.000907939 0
0.127394 0.00609998 0
0.124455 0.00218966 0
0.118671 -0.000501704 0
0.126955 0.00426429 0
0.121107 0.000765698 0
0 0 0
0.126073 0.00294005 0
0.127402 0.00559757 0
0.121464 0.000557321 0
0.106324 -0.00529408 0
0.127389 0.00630672 0
0.0886033 -0.00666678 0
0.127411 0.00509776 0
0.117484 -0.00184732 0
0.121811 0.000338452 0
0.127391 0.0060629 0
0.124926 0.00146146 0
0.0671216 -0.0057545 0
0.126948 0.00316774 0
0.127393 0.0057451 0
0.112987 -0.00394598 0
0.123753 0.000804464 0
0.127265 0.00373117 0
0.122264 1.98156e-05 0
0.127419 0.00443401 0
0.120283 -0.00100836 0
0.127396 0.00532293 0
0.120437 -0.0010972 0
0.120662 -0.00123159 0
0.122688 -0.000317344 0
0.125999 0.00123922 0
0.127424 0.00377362 0
0.126524 0.00169051 0
0.1274 0.00475715 0
0.115503 -0.00381864 0
0.120981 -0.00143356 0
0.12545 0.000516065 0
0.126921 0.00178462 0
0.123197 -0.000796576 0
0.127404 0.00399826 0
0.127426 0.0029092 0
0.121417 -0.00173582 0
0.124784 -0.000611532 0
0.113247 -0.00524636 0
0.109864 -0.00601269 0
0.117866 -0.00379008 0
0.127238 0.00153182 0
0.123646 -0.00129613 0
0.106681 -0.00676493 0
0.127118 0.00423926 0
0.121989 -0.00218729 0
0.12742 0.00204879 0
0.12712 0.00410695 0
0.127405 0.00298564 0
0.125889 -0.000443741 0
0.127121 0.00397529 0
0.126868 0.000414102 0
0.127123 0.00380564 0
0.127125 0.00363666 0
0.127127 0.00341463 0
0.120568 -0.0034707 0
0.124163 -0.00197898 0
0.120635 -0.00351914 0
0.120701 -0.00356799 0
0.127129 0.00319329 0
0.120798 -0.00364064 0
0.122698 -0.00285792 0
0.127401 0.00093971 0
0.120893 -0.00371417 0
0.127131 0.00289917 0
0.121029 -0.00382216 0
0.127396 0.00164727 0
0.127133 0.00260574 0
0.121163 -0.00393187 0
0.121351 -0.00409105 0
0.113421 -0.00664085 0
0.124611 -0.00268359 0
0.127134 0.00221446 0
0.126318 -0.00169981 0
0.12677 -0.00129534 0
0.121533 -0.00425348 0
0.127366 -0.000165561 0
0.127134 0.00182384 0
0.12572 -0.0025185 0
0.119369 -0.00528526 0
0.12178 -0.00448609 0
0.127121 -0.00123919 0
0.123518 -0.00383555 0
0.127132 0.00130449 0
0.118096 -0.00609189 0
0.122018 -0.0047244 0
0.106889 -0.00826227 0
0.127359 -0.000100018 0
0.0673273 -0.00654538 0
0.127128 0.000785748 0
0.125098 -0.00362742 0
0.115888 -0.00706254 0
0.122329 -0.00506089 0
0.1273 -0.00156878 0
0.126475 0.001682 0
0.126626 -0.00300201 0
0.127118 0.00010141 0
0.126476 0.00138229 0
0.122622 -0.00540642 0
0.113496 -0.00805102 0
0.126477 0.00100773 0
0.120634 -0.00637348 0
0.120744 -0.00647621 0
0.127104 -0.000582414 0
0.125494 -0.00460302 0
0.124383 -0.00522105 0
0.126477 0.000527555 0
0.120905 -0.00662993 0
0.12299 -0.00588714 0
0.127206 -0.00297008 0
0.121132 -0.00685732 0
0.110133 -0.00900414 0
0.127263 -0.00234961 0
0.126473 -9.82859e-05 0
0.127077 -0.00147436 0
0.123329 -0.00638297 0
0.121442 -0.00719031 0
0.0887759 -0.0091741 0
0.126404 -0.00510987 0
0.118099 -0.00841093 0
0.126464 -0.000920555 0
0.12683 -0.00469847 0
0.106961 -0.00979161 0
0.127042 -0.00236586 0
0.125871 -0.00589057 0
0.121852 -0.00767339 0
0.123733 -0.00706165 0
0.113464 -0.00957105 0
0.127054 -0.00472179 0
0.126442 -0.00200182 0
0 0 0
0.126983 -0.00351256 0
0.125177 -0.00714653 0
0.125456 -0.00101406 0
0.122367 -0.00836763 0
0.124085 -0.00776419 0
0.125456 -0.00118519 0
0.125457 -0.00135573 0
0.0364758 -0.00405133 0
0.120441 -0.00926572 0
0.125457 -0.0015648 0
0.127053 -0.00520224 0
0.12049 -0.00931935 0
0.120538 -0.0093732 0
0.125457 -0.00177327 0
0.126122 -0.00722694 0
0.120608 -0.00945304 0
0.126397 -0.00341663 0
0.126909 -0.00465864 0
0.125457 -0.00203575 0
0.120678 -0.00953336 0
0.12686 -0.00647455 0
0.120777 -0.00965075 0
0.125456 -0.00229762 0
0.120874 -0.00976915 0
0.124472 -0.00871042 0
0.125453 -0.00263362 0
0.122974 -0.00935546 0
0.12101 -0.0099397 0
0.11573 -0.010809 0
0.0672952 -0.00744331 0
0.125449 -0.00296897 0
0.113325 -0.0111046 0
0.121143 -0.0101123 0
0.106883 -0.0113461 0
0.125442 -0.00340396 0
0.121323 -0.0103574 0
0.126793 -0.00610923 0
0.117852 -0.011094 0
0.119076 -0.0109263 0
0.125434 -0.00383826 0
0.121497 -0.0106064 0
0.126306 -0.00525018 0
0.12478 -0.00969151 0
0.12542 -0.00440351 0
0.126262 -0.00896453 0
0.121725 -0.0109553 0
0.126572 -0.00862534 0
0.109906 -0.0121096 0
0.123621 -0.0107463 0
0.125719 -0.00978467 0
0.125402 -0.00496797 0
0.121941 -0.0113116 0
0.126653 -0.00755818 0
0.126651 -0.00875745 0
0.125375 -0.00570056 0
0.122213 -0.011804 0
0.125064 -0.0109894 0
0.113056 -0.0127608 0
0.123822 -0.00437576 0
0.126138 -0.00759463 0
0.119942 -0.0125734 0
0.125342 -0.00643206 0
0.123823 -0.00477505 0
0.120025 -0.0126841 0
0.122463 -0.0123091 0
0.120145 -0.0128488 0
0.106668 -0.0129276 0
0.123822 -0.00525079 0
0.126443 -0.00935868 0
0.126228 -0.010776 0
0.120314 -0.0130908 0
0.12529 -0.00737402 0
0.123818 -0.00583383 0
0.122759 -0.0129974 0
0.124207 -0.0126792 0
0.120546 -0.0134421 0
0.117355 -0.0137738 0
0.125233 -0.0123373 0
0.123807 -0.00656424 0
0.125229 -0.00831412 0
0.12085 -0.0139464 0
0.123016 -0.0137064 0
0.126196 -0.0111543 0
0.123786 -0.00749249 0
0.112675 -0.0144258 0
0.125838 -0.010542 0
0.125138 -0.00951037 0
0.12123 -0.0146629 0
0.067023 -0.00829892 0
0.0882028 -0.0118742 0
0.125743 -0.0133503 0
0.123292 -0.0146576 0
0.114874 -0.0150721 0
0.123745 -0.00868013 0
0.125953 -0.0130923 0
0.125288 -0.0140883 0
0.106308 -0.0145294 0
0.125032 -0.010703 0
0.121672 -0.015671 0
0.125845 -0.0133388 0
0.11916 -0.0158434 0
0.121805 -0.00796139 0
0.119197 -0.0159003 0
0.119233 -0.0159572 0
0.123504 -0.0156408 0
0.109192 -0.0153164 0
0.121806 -0.0081934 0
0.124558 -0.0153255 0
0.119286 -0.0160416 0
0.123671 -0.0101993 0
0.119338 -0.0161263 0
0.121806 -0.00842492 0
0.119413 -0.0162497 0
0.121805 -0.00869473 0
0.119487 -0.016374 0
0.124876 -0.0121976 0
0.121803 -0.00896397 0
0.119589 -0.0165525 0
0.121799 -0.00928702 0
0.119689 -0.0167326 0
0.11214 -0.0162222 0
0.121795 -0.00960938 0
0.116534 -0.0167915 0
0.125179 -0.0159091 0
0.119825 -0.0169875 0
0.125334 -0.0141723 0
0.121788 -0.0100054 0
0.122136 -0.0170752 0
0.119955 -0.0172455 0
0.123683 -0.016938 0
0.123542 -0.0121306 0
0.121779 -0.0104006 0
0.124697 -0.013685 0
0.125441 -0.0155102 0
0.117572 -0.0173118 0
0 0 0
0.120125 -0.0176054 0
0.121766 -0.0108944 0
0.105818 -0.0161522 0
0.120285 -0.0179711 0
0.121751 -0.011387 0
0.121728 -0.0120086 0
0.120485 -0.0184739 0
0.123763 -0.0182817 0
0.124443 -0.0155154 0
0.121701 -0.0126284 0
0.123322 -0.0145583 0
0.120667 -0.0189868 0
0.122531 -0.0190089 0
0.124831 -0.018228 0
0.111494 -0.0180184 0
0.12166 -0.0134129 0
0.124888 -0.0180883 0
0.124416 -0.0188877 0
0.0664738 -0.00928607 0
0.12088 -0.0196818 0
0.117972 -0.0194818 0
0.121614 -0.0141946 0
0.118037 -0.0195974 0
0.124155 -0.017332 0
0.11813 -0.019769 0
0.118998 -0.0123481 0
0.123727 -0.020022 0
0.124527 -0.0185365 0
0.11826 -0.0200204 0
0.121061 -0.020394 0
0.121546 -0.0151808 0
0.118999 -0.0128901 0
0.115446 -0.0197824 0
0.105195 -0.0177853 0
0.118438 -0.0203836 0
0.118996 -0.0135063 0
0.108015 -0.0186038 0
0.122962 -0.0175623 0
0.113192 -0.019821 0
0.121469 -0.0161625 0
0.11867 -0.0209017 0
0.121248 -0.0213445 0
0.118987 -0.0142259 0
0.124261 -0.0206375 0
0.122701 -0.0216361 0
0.123758 -0.0195213 0
0.11897 -0.0150869 0
0.118957 -0.0216322 0
0.110668 -0.0199489 0
0.123544 -0.0218254 0
0.121357 -0.017391 0
0.121382 -0.0223219 0
0.0868568 -0.0147485 0
0.118938 -0.0161367 0
0.121231 -0.0186118 0
0.119287 -0.0226507 0
0.0355824 -0.00475153 0
0.123312 -0.0216857 0
0.118883 -0.0174326 0
0.104451 -0.0194302 0
0.121475 -0.0236053 0
0.122394 -0.0212063 0
0.121053 -0.0201204 0
0.123434 -0.0235846 0
0.11648 -0.0230423 0
0.116508 -0.023101 0
0.116536 -0.0231599 0
0.116578 -0.0232469 0
0.123128 -0.024113 0
0.116619 -0.0233342 0
0.119622 -0.0240551 0
0.1233 -0.0236367 0
0.116678 -0.0234612 0
0.11879 -0.0190407 0
0.116737 -0.0235888 0
0.116818 -0.0237717 0
0.113967 -0.0230573 0
0.109737 -0.0218677 0
0.115847 -0.0169937 0
0.121483 -0.0249282 0
0.116897 -0.0239559 0
0.0656675 -0.0101643 0
0.120853 -0.0216161 0
0.115847 -0.0173069 0
0.122409 -0.0251449 0
0.117004 -0.0242158 0
0.115846 -0.0176198 0
0.122716 -0.0242337 0
0.117107 -0.0244782 0
0.115843 -0.0179679 0
0.115839 -0.0183155 0
0.11724 -0.0248429 0
0.118637 -0.0210336 0
0.115833 -0.018713 0
0.114654 -0.0242672 0
0.117365 -0.0252121 0
0.115825 -0.0191097 0
0.119881 -0.0259693 0
0.120577 -0.0234349 0
0.106404 -0.0219417 0
0.115814 -0.0195744 0
0.103595 -0.0210711 0
0.122511 -0.0264792 0
0.121375 -0.0266338 0
0.11752 -0.0257175 0
0.115801 -0.0200381 0
0.121528 -0.0255234 0
0.11766 -0.026231 0
0.115783 -0.0205926 0
0.122055 -0.0267401 0
0 0 0
0.115761 -0.0211457 0
0.118391 -0.0234853 0
0.120268 -0.0252325 0
0.117821 -0.0269234 0
0.115731 -0.0218171 0
0.108599 -0.0239143 0
0.121138 -0.0283929 0
0.115696 -0.0224862 0
0.117954 -0.0276292 0
0.110573 -0.0249762 0
0.119927 -0.0285432 0
0.115647 -0.0233058 0
0.11452 -0.0268759 0