# vtk DataFile Version 3.0
File generated from DClib
ASCII

DATASET UNSTRUCTURED_GRID
POINTS 1909 float
50 0 0 
48.75 0 0 
50 1.66667 0 
47.5 0 0 
50 3.33333 0 
46.25 0 0 
50 5 0 
45 0 0 
43.75 0 0 
50 6.66667 0 
43 2 0 
42.5 0 0 
50 8.33333 0 
43 4.66667 0 
41.25 0 0 
41.075 2 0 
50 10 0 
40 0 0 
43 7.33333 0 
39.15 2 0 
38.75 0 0 
43 10 0 
37.5 0 0 
37.225 2 0 
36.25 0 0 
36 4 0 
35.3 2 0 
36 5 0 
35 0 0 
35.325 4 0 
36 6 0 
36 7 0 
34.65 4 0 
36 8 0 
33.75 0 0 
33.975 4 0 
36 9 0 
33.375 2 0 
33.3 4 0 
36 10 0 
32.5 0 0 
32.625 4 0 
33 6 0 
31.95 4 0 
33 7.45455 0 
31.45 2 0 
31.25 0 0 
31.95 6 0 
33 8.79545 0 
31.275 4 0 
33 10 0 
30.6 4 0 
30 0 0 
30.9 6 0 
29.925 4 0 
29.525 2 0 
29.85 6 0 
29.25 4 0 
28.75 0 0 
30 8 0 
30 8.45455 0 
28.575 4 0 
29.625 8 0 
30 8.90909 0 
28.8 6 0 
30 9.25 0 
29.782 8.90909 0 
30 9.59091 0 
29.9487 9.59091 0 
29.25 8 0 
29.7462 9.25 0 
30 9.79545 0 
29.897 9.59091 0 
29.564 8.90909 0 
29.9547 9.79545 0 
29.3462 8.45455 0 
29.84 9.59091 0 
30 10 0 
29.8975 9.79545 0 
29.9882 10 0 
29.9902 10.0098 0 
29.7827 9.59091 0 
29.9765 10 0 
29.9804 10.0196 0 
29.9667 10.0098 0 
29.9591 10 0 
29.9686 10.0196 0 
29.9659 10.0341 0 
29.9569 10.0196 0 
29.9418 10 0 
29.9395 10.0196 0 
29.9515 10.0485 0 
29.932 10.0098 0 
29.9424 10.0341 0 
29.8241 9.79545 0 
29.7181 9.59091 0 
29.9166 10 0 
29.9397 10.0485 0 
29.9222 10.0196 0 
29.9279 10.0485 0 
29.9305 10.0695 0 
29.8914 10 0 
29.9077 10.0341 0 
27.9 4 0 
29.897 10.0196 0 
29.9106 10.0485 0 
29.8817 10.0098 0 
29.907 10.0695 0 
29.8933 10.0485 0 
29.9095 10.0905 0 
29.8719 10.0196 0 
27.6 2 0 
29.8556 10 0 
29.8978 10.0905 0 
29.6531 9.59091 0 
29.3437 8.90909 0 
27.5 0 0 
29.8681 10.0485 0 
29.886 10.0905 0 
29.8574 10.0341 0 
29.4839 9.25 0 
29.8723 10.0695 0 
29.7289 9.79545 0 
29.836 10.0196 0 
29.8687 10.0905 0 
29.8197 10 0 
29.8797 10.1203 0 
29.843 10.0485 0 
29.8513 10.0905 0 
29.81 10.0098 0 
29.8561 10.1203 0 
29.8002 10.0196 0 
29.8221 10.0695 0 
29.8072 10.0485 0 
29.8262 10.0905 0 
29.5782 9.59091 0 
29.8498 10.1502 0 
29.7695 10 0 
29.7858 10.0341 0 
29.838 10.1502 0 
29.8215 10.1203 0 
29.8011 10.0905 0 
29.8262 10.1502 0 
29.7714 10.0485 0 
28.875 8 0 
29.75 10.0196 0 
29.8089 10.1502 0 
29.7654 10.0905 0 
29.7193 10 0 
29.7916 10.1502 0 
29.7505 10.0695 0 
29.8079 10.1921 0 
29.7713 10.1203 0 
29.7096 10.0098 0 
29.6047 9.79545 0 
29.503 9.59091 0 
29.7213 10.0485 0 
29.7665 10.1502 0 
29.6999 10.0196 0 
29.7844 10.1921 0 
29.7296 10.0905 0 
29.6856 10.0341 0 
29.7414 10.1502 0 
29.7497 10.1921 0 
29.6503 10 0 
29.7661 10.2339 0 
29.6712 10.0485 0 
29.6999 10.1203 0 
29.7543 10.2339 0 
29.6796 10.0905 0 
29.7057 10.1502 0 
29.7425 10.2339 0 
29.1235 8.90909 0 
29.6309 10.0196 0 
29.6504 10.0695 0 
29.4146 9.59091 0 
29.7252 10.2339 0 
29.6996 10.1921 0 
29.6701 10.1502 0 
29.7079 10.2339 0 
29.6296 10.0905 0 
29.5813 10 0 
29.6023 10.0485 0 
29.5716 10.0098 0 
29.6828 10.2339 0 
29.7086 10.2914 0 
29.2101 9.25 0 
29.562 10.0196 0 
29.6201 10.1502 0 
29.6578 10.2339 0 
29.4428 9.79545 0 
29.5999 10.1203 0 
29.6849 10.2914 0 
29.6283 10.1921 0 
29.5477 10.0341 0 
29.3259 9.59091 0 
29.5608 10.0905 0 
29.5335 10.0485 0 
29.6221 10.2339 0 
29.6503 10.2914 0 
29.5702 10.1502 0 
29.4881 10 0 
29.5128 10.0695 0 
29.6511 10.3489 0 
29.5866 10.2339 0 
29.6392 10.3489 0 
29.4689 10.0196 0 
29.6002 10.2914 0 
29.6273 10.3489 0 
29.4921 10.0905 0 
29.61 10.3489 0 
29.5286 10.1921 0 
29.5016 10.1502 0 
29.5368 10.2339 0 
29.5926 10.3489 0 
29.4405 10.0485 0 
29.2199 9.59091 0 
29.4626 10.1203 0 
29.3949 10 0 
28.9 8.90909 0 
29.5676 10.3489 0 
29.5291 10.2914 0 
29.3853 10.0098 0 
28.6923 8.45455 0 
29.487 10.2339 0 
29.5426 10.3489 0 
29.3758 10.0196 0 
29.5734 10.4266 0 
29.4331 10.1502 0 
29.3993 10.0905 0 
28.5 8 0 
29.3617 10.0341 0 
29.5496 10.4266 0 
29.5071 10.3489 0 
29.2327 9.79545 0 
29.3475 10.0485 0 
29.1136 9.59091 0 
29.4187 10.2339 0 
29.5148 10.4266 0 
29.4716 10.3489 0 
29.3918 10.1921 0 
29.3271 10.0695 0 
29.4298 10.2914 0 
29.2714 10 0 
29.3406 10.1502 0 
28.9208 9.25 0 
29.3066 10.0905 0 
29.4648 10.4266 0 
29.422 10.3489 0 
29.4958 10.5042 0 
29.2524 10.0196 0 
27.75 6 0 
29.3504 10.2339 0 
29.4837 10.5042 0 
29.4718 10.5042 0 
29.2774 10.1203 0 
29.4543 10.5042 0 
29.3724 10.3489 0 
29.2244 10.0485 0 
29.4369 10.5042 0 
29.3938 10.4266 0 
28.9853 9.59091 0 
29.2481 10.1502 0 
28.6766 8.90909 0 
29.4119 10.5042 0 
29.2934 10.2914 0 
27.225 4 0 
29.148 10 0 
29.2582 10.2339 0 
29.1837 10.0905 0 
29.3869 10.5042 0 
29.1385 10.0098 0 
29.3044 10.3489 0 
29.1291 10.0196 0 
29.2072 10.1921 0 
29.3514 10.5042 0 
29.1152 10.0341 0 
29.3929 10.6071 0 
29.2949 10.4266 0 
29.1013 10.0485 0 
29.3686 10.6071 0 
29.316 10.5042 0 
29.2364 10.3489 0 
28.9623 9.79545 0 
29.1257 10.1502 0 
29.1662 10.2339 0 
29.0811 10.0695 0 
28.8566 9.59091 0 
29.3336 10.6071 0 
29.2666 10.5042 0 
29.0609 10.0905 0 
28.9875 10 0 
29.2835 10.6071 0 
29.1448 10.3489 0 
29.0321 10.1203 0 
29.2173 10.5042 0 
29.1098 10.2914 0 
28.125 8 0 
28.9688 10.0196 0 
29.1594 10.4266 0 
28.611 9.25 0 
29.29 10.71 0 
28.4486 8.90909 0 
29.0443 10.2339 0 
29.0033 10.1502 0 
29.2777 10.71 0 
28.9413 10.0485 0 
29.2128 10.6071 0 
29.2655 10.71 0 
29.1497 10.5042 0 
29.2478 10.71 0 
28.7003 9.59091 0 
29.0533 10.3489 0 
29.2303 10.71 0 
28.9629 10.1921 0 
28.9013 10.0905 0 
29.2051 10.71 0 
29.0822 10.5042 0 
29.1801 10.71 0 
28.827 10 0 
29.1144 10.6071 0 
28.8177 10.0098 0 
28.9225 10.2339 0 
28.8085 10.0196 0 
29.1447 10.71 0 
28.7949 10.0341 0 
28.8443 10.1502 0 
28.977 10.4266 0 
28.9322 10.3489 0 
29.1094 10.71 0 
28.7813 10.0485 0 
28.9912 10.5042 0 
29.1562 10.8438 0 
28.5436 9.59091 0 
28.7615 10.0695 0 
28.8669 10.2914 0 
29.1313 10.8438 0 
28.6184 9.79545 0 
29.0602 10.71 0 
28.2207 8.90909 0 
28.7418 10.0905 0 
28.0378 8.45455 0 
28.9798 10.6071 0 
29.0958 10.8438 0 
29.0112 10.71 0 
28.9005 10.5042 0 
28.7136 10.1203 0 
28.7644 10.2339 0 
28.8113 10.3489 0 
29.0454 10.8438 0 
28.6223 10 0 
28.6854 10.1502 0 
28.2746 9.25 0 
28.9441 10.71 0 
28.6042 10.0196 0 
27.75 8 0 
28.9747 10.8438 0 
28.6459 10.1921 0 
28.5773 10.0485 0 
29.0225 10.9775 0 
28.3532 9.59091 0 
28.7804 10.5042 0 
28.736 10.4266 0 
28.8772 10.71 0 
29.0097 10.9775 0 
28.9971 10.9775 0 
28.799 10.6071 0 
28.9791 10.9775 0 
28.5384 10.0905 0 
28.6064 10.2339 0 
28.6543 10.3489 0 
28.9611 10.9775 0 
28.8769 10.8438 0 
27.9867 8.90909 0 
26.25 0 0 
28.9358 10.9775 0 
28.7871 10.71 0 
28.9106 10.9775 0 
28.6607 10.5042 0 
28.4177 10 0 
26.55 4 0 
28.552 10.2914 0 
28.483 10.1502 0 
28.4087 10.0098 0 
28.8751 10.9775 0 
28.3998 10.0196 0 
28.3866 10.0341 0 
28.8399 10.9775 0 
28.6974 10.71 0 
28.3735 10.0485 0 
28.1625 9.59091 0 
28.7436 10.8438 0 
28.4976 10.3489 0 
28.3543 10.0695 0 
28.791 10.9775 0 
28.4052 10.2339 0 
28.3352 10.0905 0 
28.8519 11.1481 0 
28.1869 9.79545 0 
28.5607 10.6071 0 
28.5053 10.5042 0 
28.7423 10.9775 0 
28.8258 11.1481 0 
28.308 10.1203 0 
28.5787 10.71 0 
27.904 9.25 0 
28.7893 11.1481 0 
28.424 10.4266 0 
27.7528 8.90909 0 
28.2807 10.1502 0 
28.6758 10.9775 0 
27.375 8 0 
28.7383 11.1481 0 
28.1619 10 0 
28.5649 10.8438 0 
28.2425 10.1921 0 
28.6096 10.9775 0 
28.1444 10.0196 0 
28.298 10.3489 0 
28.4605 10.71 0 
26.7 6 0 
27.9315 9.59091 0 
28.3503 10.5042 0 
28.6676 11.1481 0 
28.1187 10.0485 0 
28.2042 10.2339 0 
28.5207 10.9775 0 
28.0813 10.0905 0 
28.6814 11.3186 0 
27.3818 8.45455 0 
28.6679 11.3186 0 
28.1516 10.2914 0 
28.5703 11.1481 0 
28.6544 11.3186 0 
28.6358 11.3186 0 
27.5109 8.90909 0 
28.3072 10.71 0 
28.6173 11.3186 0 
28.2524 10.6071 0 
28.4322 10.9775 0 
28.028 10.1502 0 
28.5915 11.3186 0 
28.0989 10.3489 0 
28.33 10.8438 0 
28.5658 11.3186 0 
28.153 10.5042 0 
27.9061 10 0 
27.8975 10.0098 0 
28.5303 11.3186 0 
28.4384 11.1481 0 
27.7002 9.59091 0 
27.889 10.0196 0 
27.8765 10.0341 0 
28.4949 11.3186 0 
28.3154 10.9775 0 
27.9532 10.2339 0 
27.8639 10.0485 0 
28.0276 10.4266 0 
28.1544 10.71 0 
27.8457 10.0695 0 
27.4909 9.25 0 
28.4463 11.3186 0 
27 8 0 
27.8275 10.0905 0 
28.3979 11.3186 0 
27.8015 10.1203 0 
27.6542 9.79545 0 
25.675 2 0 
28.1991 10.9775 0 
27.2691 8.90909 0 
27.9563 10.5042 0 
28.4682 11.5318 0 
28.2625 11.1481 0 
27.7755 10.1502 0 
28.3322 11.3186 0 
27.8502 10.3489 0 
28.4401 11.5318 0 
25.875 4 0 
27.7391 10.1921 0 
28.4019 11.5318 0 
28.0268 10.8438 0 
28.2668 11.3186 0 
27.9602 10.71 0 
28.3498 11.5318 0 
27.4223 9.59091 0 
27.7026 10.2339 0 
27.5927 10 0 
28.0486 10.9775 0 
27.8616 10.6071 0 
27.5762 10.0196 0 
28.1794 11.3186 0 
28.2786 11.5318 0 
27.5519 10.0485 0 
27.6524 10.2914 0 
28.0319 11.1481 0 
27.7108 10.5042 0 
27.5167 10.0905 0 
27.0169 8.90909 0 
28.0924 11.3186 0 
27.6021 10.3489 0 
27.8988 10.9775 0 
28.1818 11.5318 0 
27.7667 10.71 0 
26.625 8 0 
28.255 11.745 0 
27.4664 10.1502 0 
28.2402 11.745 0 
28.2256 11.745 0 
28.2059 11.745 0 
27.978 11.3186 0 
26.7234 8.45455 0 
27.0259 9.25 0 
27.5342 10.4266 0 
28.1863 11.745 0 
27.1442 9.59091 0 
28.0516 11.5318 0 
28.1598 11.745 0 
27.3959 10.2339 0 
28.1334 11.745 0 
27.2793 10 0 
27.2714 10.0098 0 
27.2635 10.0196 0 
27.7086 10.9775 0 
27.6431 10.8438 0 
28.0975 11.745 0 
27.8643 11.3186 0 
27.4661 10.5042 0 
27.2518 10.0341 0 
27.2401 10.0485 0 
28.0617 11.745 0 
26.7648 8.90909 0 
27.5255 10.71 0 
27.7353 11.1481 0 
27.2231 10.0695 0 
28.0133 11.745 0 
27.2061 10.0905 0 
27.8791 11.5318 0 
27.2986 10.3489 0 
27.1818 10.1203 0 
27.9651 11.745 0 
27.3758 10.6071 0 
27.0077 9.79545 0 
27.7174 11.3186 0 
27.1576 10.1502 0 
25 0 0 
27.5193 10.9775 0 
27.9003 11.745 0 
27.1236 10.1921 0 
26.25 8 0 
27.9939 12.0061 0 
25.65 6 0 
27.8359 11.745 0 
26.8136 9.59091 0 
27.0896 10.2339 0 
27.9626 12.0061 0 
27.2853 10.71 0 
25.2 4 0 
27.5713 11.3186 0 
27.9218 12.0061 0 
26.4998 8.90909 0 
27.167 10.5042 0 
27.6541 11.5318 0 
27.0427 10.2914 0 
27.7503 11.745 0 
26.9033 10 0 
27.8677 12.0061 0 
26.8882 10.0196 0 
26.8659 10.0485 0 
26.9958 10.3489 0 
27.2836 10.9775 0 
27.6652 11.745 0 
27.3609 11.1481 0 
27.7955 12.0061 0 
26.499 9.25 0 
[...]
POINT_DATA 1909
SCALARS phi float 1
LOOKUP_TABLE default
VECTORS Displacement float
0 0 0
0 0 0
0 -0.00174297 0
0 0 0
0 -0.000876619 0
0 0 0
0 0.00235714 0
0 0 0
0 0 0
0 0.00772966 0
0.0152791 -0.000622998 0
0 0 0
0 0.0149481 0
0.0288471 0.00544294 0
0 0 0
0.0206533 -0.00061607 0
0 0.0234579 0
0 0 0
0.0382495 0.0172793 0
0.0263721 -0.000739155 0
0 0 0
0.0433052 0.0328648 0
0 0 0
0.0322547 -0.00105086 0
0 0 0
0.060238 0.00394331 0
0.0379598 -0.0015152 0
0.071443 0.0086453 0
0 0 0
0.0646441 0.0035903 0
0.0792489 0.0146469 0
0.084271 0.021496 0
0.0687939 0.00321951 0
0.0874199 0.0284712 0
0 0 0
0.0728631 0.00267014 0
0.0897941 0.0354547 0
0.0431922 -0.00208979 0
0.0767199 0.0020829 0
0.0920625 0.042877 0
0 0 0
0.0803598 0.0014048 0
0.10393 0.0121941 0
0.0837707 0.000686442 0
0.11425 0.0240768 0
0.0477319 -0.00274914 0
0 0 0
0.112328 0.0089109 0
0.11885 0.0390832 0
0.0869334 -9.19817e-05 0
0.119596 0.0590779 0
0.089833 -0.000908851 0
0 0 0
0.118999 0.00596732 0
0.0924745 -0.00177019 0
0.0514106 -0.00348737 0
0.124566 0.00294711 0
0.0948308 -0.0026752 0
0 0 0
0.147121 0.0132046 0
0.151734 0.0164703 0
0.0969202 -0.00361336 0
0.149847 0.0110876 0
0.156477 0.0203762 0
0.129105 -0.000223671 0
0.159806 0.0261831 0
0.158689 0.01849 0
0.163079 0.0344581 0
0.163749 0.0323611 0
0.152276 0.00900803 0
0.162593 0.0221319 0
0.163741 0.0403106 0
0.164407 0.030731 0
0.160635 0.0167187 0
0.164378 0.0381285 0
0.156962 0.0121326 0
0.165032 0.029103 0
0.163819 0.047034 0
0.165241 0.0357151 0
0.164141 0.0472105 0
0.198122 0.0594643 0
0.165616 0.0277111 0
0.164505 0.0471801 0
0.218886 0.0663093 0
0.197225 0.0588675 0
0.165066 0.0470799 0
0.217838 0.0657116 0
0.220983 0.0660071 0
0.216684 0.0649583 0
0.165672 0.0468491 0
0.214779 0.0638952 0
0.221044 0.0653697 0
0.195736 0.0574965 0
0.220006 0.0647574 0
0.166419 0.0331904 0
0.166194 0.026351 0
0.166555 0.0461895 0
0.220971 0.0648278 0
0.212919 0.0627132 0
0.220904 0.0643066 0
0.221379 0.0646831 0
0.167463 0.0455026 0
0.217854 0.0629296 0
0.0987099 -0.00460893 0
0.210473 0.0608895 0
0.220651 0.0635848 0
0.194023 0.0548462 0
0.221224 0.0636418 0
0.220267 0.0627494 0
0.221156 0.0638461 0
0.208206 0.0590679 0
0.0540751 -0.00431342 0
0.168673 0.0440714 0
0.221096 0.0633068 0
0.166715 0.0251195 0
0.16248 0.0150418 0
0 0 0
0.219475 0.0613751 0
0.221018 0.0627332 0
0.214481 0.0597713 0
0.165062 0.0192518 0
0.220886 0.0618879 0
0.167962 0.0306317 0
0.205572 0.0563133 0
0.220886 0.0618138 0
0.169839 0.0427236 0
0.220882 0.0626 0
0.218367 0.0598661 0
0.220748 0.0608421 0
0.192354 0.0505987 0
0.220741 0.0613383 0
0.203202 0.0537559 0
0.219904 0.0589428 0
0.216639 0.0575077 0
0.22051 0.059382 0
0.167293 0.0238848 0
0.220496 0.0611715 0
0.17129 0.0406301 0
0.209999 0.0548159 0
0.22041 0.060499 0
0.220497 0.0593425 0
0.22025 0.0578968 0
0.220321 0.0598128 0
0.214699 0.055182 0
0.154628 0.00689875 0
0.200585 0.0502842 0
0.220186 0.0587892 0
0.219733 0.0558248 0
0.172582 0.0387008 0
0.220046 0.0577628 0
0.217609 0.0545905 0
0.219883 0.059019 0
0.220104 0.0563939 0
0.190792 0.0450474 0
0.169819 0.0280327 0
0.167831 0.0227287 0
0.212052 0.0519475 0
0.219843 0.0562824 0
0.198441 0.0472322 0
0.219725 0.0576184 0
0.219043 0.0537939 0
0.204763 0.0484272 0
0.219643 0.0548373 0
0.219483 0.0555774 0
0.174103 0.0362844 0
0.219267 0.056818 0
0.209464 0.0489768 0
0.219388 0.0524012 0
0.21918 0.0561127 0
0.217816 0.0510838 0
0.219363 0.0528523 0
0.219092 0.0554176 0
0.164144 0.0133633 0
0.196177 0.0435331 0
0.21361 0.0489132 0
0.168513 0.0215722 0
0.218967 0.0544116 0
0.219126 0.0527572 0
0.219102 0.0509829 0
0.218844 0.0534316 0
0.216301 0.0485268 0
0.175356 0.0340631 0
0.206258 0.0452444 0
0.189343 0.0389207 0
0.218674 0.0520588 0
0.218443 0.0538343 0
0.167362 0.016676 0
0.194515 0.0403775 0
0.218683 0.0485686 0
0.21851 0.0507463 0
0.171897 0.0253826 0
0.217782 0.0474775 0
0.218292 0.0525064 0
0.218651 0.0491264 0
0.199505 0.0414149 0
0.169201 0.0204969 0
0.213986 0.0453055 0
0.203479 0.0419862 0
0.218287 0.0489796 0
0.218075 0.0506517 0
0.218209 0.0463591 0
0.17679 0.0316773 0
0.208075 0.0423614 0
0.21763 0.0510062 0
0.218075 0.0473315 0
0.217559 0.0503781 0
0.192727 0.0368817 0
0.217779 0.0481741 0
0.217489 0.0497663 0
0.21154 0.0423765 0
0.21739 0.0488931 0
0.218038 0.044795 0
0.217306 0.0436442 0
0.217801 0.0451999 0
0.217294 0.0480518 0
0.200304 0.0382387 0
0.170035 0.0193242 0
0.214445 0.0418649 0
0.177914 0.0294548 0
0.165694 0.0116798 0
0.217161 0.0468854 0
0.217397 0.0450401 0
0.187865 0.0328817 0
0.16126 0.00796034 0
0.217555 0.043269 0
0.217035 0.0457781 0
0.191476 0.0338824 0
0.216732 0.0475262 0
0.216124 0.0411638 0
0.208285 0.0388761 0
0.156753 0.00474539 0
0.194873 0.03458 0
0.21661 0.046413 0
0.216866 0.0442931 0
0.174081 0.0225389 0
0.197818 0.0350421 0
0.170888 0.018206 0
0.217219 0.0408709 0
0.216441 0.0448838 0
0.216711 0.0429087 0
0.216881 0.0399517 0
0.201855 0.03555 0
0.216944 0.0413157 0
0.179183 0.0271612 0
0.214127 0.0381915 0
0.169476 0.0140611 0
0.205268 0.0357842 0
0.216214 0.0428574 0
0.216507 0.0411199 0
0.215804 0.0443678 0
0.189989 0.0306219 0
0.132583 -0.0035402 0
0.216873 0.038731 0
0.215755 0.0438651 0
0.215708 0.0433764 0
0.209044 0.0357511 0
0.215643 0.0426816 0
0.21632 0.0394783 0
0.195174 0.0315183 0
0.215579 0.0420119 0
0.215926 0.0402908 0
0.17189 0.0169104 0
0.211819 0.035456 0
0.167134 0.00998779 0
0.21549 0.0410849 0
0.216441 0.0371093 0
0.10022 -0.0056277 0
0.180176 0.0249702 0
0.21618 0.0361563 0
0.201737 0.0321991 0
0.215405 0.0402011 0
0.186333 0.0270409 0
0.216085 0.0374147 0
0.188907 0.0277276 0
0.214044 0.0346864 0
0.215289 0.0390101 0
0.191162 0.0281474 0
0.214871 0.040723 0
0.215578 0.0371789 0
0.193215 0.0284625 0
0.214789 0.0398496 0
0.215179 0.037887 0
0.215872 0.0355408 0
0.176265 0.0192452 0
0.208602 0.0321872 0
0.215185 0.0337939 0
0.196132 0.0288399 0
0.172895 0.0156459 0
0.214674 0.0386535 0
0.21503 0.0364138 0
0.198843 0.0290828 0
0.181269 0.022562 0
0.21452 0.037056 0
0.215596 0.0332214 0
0.202398 0.0292549 0
0.214891 0.0350368 0
0.215552 0.0324519 0
0.158698 0.00255159 0
0.187625 0.0244899 0
0.215176 0.0335376 0
0.171482 0.0113401 0
0.213869 0.0374538 0
0.168474 0.00825208 0
0.213366 0.0309732 0
0.205441 0.0292152 0
0.213841 0.0370646 0
0.19126 0.0250778 0
0.21432 0.0349887 0
0.213813 0.0366844 0
0.214707 0.0332758 0
0.213776 0.0361454 0
0.174054 0.0141333 0
0.215316 0.031119 0
0.213739 0.0356217 0
0.208729 0.0288667 0
0.195857 0.0255154 0
0.213687 0.0348936 0
0.214533 0.0316367 0
0.213636 0.0341905 0
0.182155 0.020224 0
0.214067 0.0323988 0
0.185149 0.0211644 0
0.211095 0.028311 0
0.186806 0.0215712 0
0.213564 0.0332329 0
0.188404 0.0218452 0
0.201778 0.025676 0
0.214725 0.029374 0
0.214708 0.0285737 0
0.213493 0.0323146 0
0.189829 0.0220378 0
0.214308 0.0295814 0
0.212849 0.0337517 0
0.175178 0.0126385 0
0.191782 0.0222456 0
0.212932 0.0272981 0
0.212799 0.0330556 0
0.178392 0.0152583 0
0.213393 0.0310914 0
0.169708 0.00651067 0
0.193654 0.0223907 0
0.164682 0.00359111 0
0.213747 0.0292461 0
0.212729 0.0321 0
0.213294 0.0299256 0
0.214092 0.0276751 0
0.196258 0.0225168 0
0.207898 0.0251047 0
0.213771 0.0262035 0
0.212632 0.0308074 0
0.183083 0.0174974 0
0.198741 0.0225426 0
0.173436 0.0084466 0
0.213156 0.0284071 0
0.186059 0.0182748 0
0.160373 0.000339456 0
0.212502 0.0290981 0
0.201936 0.0224238 0
0.188557 0.0186219 0
0.211815 0.0303692 0
0.176449 0.0108357 0
0.213813 0.0253211 0
0.2139 0.0246691 0
0.213018 0.0269688 0
0.211798 0.0300482 0
0.211781 0.0297329 0
0.213341 0.0255094 0
0.211757 0.0292903 0
0.191646 0.0188355 0
0.204702 0.0221322 0
0.212009 0.0233915 0
0.211734 0.0288569 0
0.212328 0.0268973 0
0.170843 0.00471988 0
0 0 0
0.2117 0.028255 0
0.212832 0.0251438 0
0.211665 0.0276679 0
0.213525 0.0231617 0
0.183874 0.0148456 0
0.101417 -0.00672737 0
0.207657 0.0214987 0
0.195782 0.0188729 0
0.185015 0.0151294 0
0.211615 0.0268651 0
0.185828 0.0152756 0
0.186805 0.0153959 0
0.211565 0.0260868 0
0.212648 0.023432 0
0.187746 0.0154871 0
0.177627 0.0090386 0
0.212098 0.024151 0
0.209765 0.020699 0
0.189046 0.0155745 0
0.211493 0.0250429 0
0.201127 0.0185408 0
0.190285 0.0156207 0
0.210669 0.0264674 0
0.180504 0.0104722 0
0.212848 0.0212254 0
0.212906 0.0205716 0
0.211421 0.0240398 0
0.21064 0.0258686 0
0.19199 0.0156336 0
0.212409 0.0213183 0
0.175291 0.00528032 0
0.2106 0.0250549 0
0.211352 0.0194401 0
0.171872 0.00292604 0
0.193666 0.0156011 0
0.211321 0.0227259 0
0.161822 -0.00189604 0
0.210543 0.0239569 0
0.184608 0.0116859 0
0.211793 0.0208472 0
0.195979 0.0154865 0
0.211223 0.0214781 0
0.185815 0.011861 0
0.206672 0.0174328 0
0.212178 0.0193455 0
0.134976 -0.00701276 0
0.178901 0.0068672 0
0.211989 0.0181264 0
0.210464 0.0225008 0
0.187226 0.0119338 0
0.19822 0.0152884 0
0.211093 0.0198822 0
0.18921 0.0119501 0
0.209503 0.0228242 0
0.167322 -0.00084116 0
0.209493 0.0225396 0
0.201073 0.0148795 0
0.210355 0.0206189 0
0.209484 0.02226 0
0.209471 0.0218758 0
0.172805 0.00106893 0
0.211851 0.0169057 0
0.209458 0.0214996 0
0.211951 0.0163507 0
0.210965 0.0183722 0
0.19189 0.0118172 0
0.209439 0.0209836 0
0.203579 0.0143209 0
0.211375 0.0169629 0
0.209421 0.0204807 0
0.210314 0.0151774 0
0.185257 0.00863155 0
0.185659 0.00865444 0
0.209395 0.0197977 0
0.210201 0.0182571 0
0.180022 0.00469614 0
0.186057 0.00867049 0
0.186561 0.00865656 0
0.209369 0.0191359 0
0.210799 0.0164706 0
0.195534 0.0114179 0
0.187079 0.00864051 0
0.206234 0.0133706 0
0.211487 0.0145861 0
0.187837 0.00860676 0
0.177005 0.00177746 0
0.209332 0.0182513 0
0.163007 -0.0041416 0
0.188603 0.00856169 0
0.209296 0.0173976 0
0.18967 0.00846946 0
0.182776 0.00496041 0
0.0555527 -0.00523876 0
0.210614 0.0146361 0
0.173614 -0.000794697 0
0.208113 0.0122713 0
0.208252 0.0186595 0
0.209989 0.015343 0
0.190726 0.00835162 0
0.209247 0.0162754 0
0.200242 0.0105282 0
0.208239 0.0181206 0
0.102314 -0.00783652 0
0.192191 0.00814891 0
0.208221 0.0174087 0
0.210758 0.0123355 0
0.209192 0.0151873 0
0.210793 0.0117578 0
0.208194 0.0164656 0
0.18112 0.00208135 0
0.193645 0.0079074 0
0.18608 0.00511983 0
0.210344 0.012336 0
0.209452 0.0106717 0
0.186496 0.00503154 0
0.209117 0.0137746 0
0.208155 0.0152242 0
0.187205 0.00491323 0
0.195631 0.00751324 0
0.209666 0.0117336 0
0.205127 0.00876519 0
0.188298 0.0047296 0
0.174329 -0.00273758 0
0.20903 0.0123941 0
0.197575 0.00704704 0
0.21003 0.0101176 0
0.208099 0.0136033 0
0.209874 0.00903775 0
0.163974 -0.00641866 0
0.206924 0.0147534 0
0.189901 0.00442233 0
0.206923 0.014494 0
0.206922 0.0142386 0
0.206922 0.0138994 0
0.208897 0.0106139 0
0.169181 -0.00533884 0
0.178459 -0.0021634 0
0.20002 0.0062963 0
0.20692 0.0135652 0
0.182015 -0.000526881 0
0.208012 0.0114996 0
0.20692 0.0131172 0
0.192148 0.00388914 0
0.206917 0.0126758 0
0.186792 0.00170576 0
0.186948 0.00164464 0
0.187104 0.00158274 0
0.209573 0.00738031 0
0.20963 0.00688851 0
0.206914 0.0120825 0
0.208745 0.00887781 0
0.202188 0.00541442 0
0.187328 0.00148797 0
0.187568 0.00139648 0
0.206909 0.0114975 0
0.174907 -0.00468692 0
0.208226 0.0057972 0
0.209132 0.00731592 0
0.187955 0.0012711 0
0.206896 0.0107125 0
0.188358 0.00114561 0
0.207865 0.00879044 0
0.195211 0.00297222 0
0.188946 0.000960895 0
0.206879 0.00993787 0
0.204452 0.00408031 0
0.184761 -0.00151145 0
0.208519 0.00668425 0
0.189545 0.00076781 0
0 0 0
0.209062 0.00475098 0
0.20685 0.00890771 0
0.190388 0.000478046 0
0.164686 -0.00870664 0
0.205447 0.0103121 0
0.136259 -0.0106655 0
0.206814 0.0078922 0
0.182809 -0.00360749 0
0.191245 0.000170024 0
0.205449 0.0097939 0
0.20604 0.00261481 0
0.102879 -0.00906077 0
0.208261 0.00455657 0
0.205448 0.00912523 0
0.175385 -0.00673867 0
0.19913 0.00141806 0
0.207612 0.00536716 0
0.192421 -0.000289722 0
0.206759 0.00655833 0
0.187571 -0.00227206 0
0.205444 0.00824737 0
0.187814 -0.00241875 0
0.188182 -0.00263548 0
0.193605 -0.000783859 0
0.208235 0.00160281 0
0.206693 0.00524883 0
0.208249 0.00206151 0
0.205431 0.00708684 0
0.179501 -0.00663607 0
0.188755 -0.00294571 0
0.207077 0.000601174 0
0.207883 0.00193322 0
0.195186 -0.0015115 0
0.205405 0.00555527 0
0.206591 0.00356051 0
0.189599 -0.00340316 0
0.203153 -0.0011335 0
0.175719 -0.00879832 0
0.170263 -0.00991828 0
0.18332 -0.00668171 0
0.207175 0.00115618 0
0.196754 -0.00230306 0
0.165186 -0.0110293 0
0.203872 0.00600945 0
0.190788 -0.00409074 0
0.206472 0.00190998 0
0.203873 0.00573947 0
0.205351 0.00355359 0
0.207256 -0.00142408 0
0.203875 0.00547184 0
0.207445 -0.000594399 0
0.203876 0.00512884 0
0.203877 0.00478876 0
0.203878 0.00434476 0
0.187972 -0.00618956 0
0.198684 -0.00346001 0
0.188093 -0.00626545 0
0.188213 -0.00634169 0
0.203877 0.00390467 0
0.188387 -0.00645467 0
0.192492 -0.00510888 0
0.206291 -0.000174333 0
0.188559 -0.00656856 0
0.203875 0.00332437 0
0.188808 -0.00673549 0
0.205246 0.000979066 0
0.203871 0.00274979 0
0.189056 -0.00690449 0
0.189408 -0.00714937 0
0.175928 -0.0109857 0
0.200408 -0.00472786 0
0.203863 0.00199031 0
0.206792 -0.0040141 0
0.20682 -0.00364877 0
0.189756 -0.00739881 0
0.206081 -0.00220423 0
0.203851 0.00123974 0
0.205571 -0.0049523 0
0.185797 -0.00904423 0
0.190239 -0.00775635 0
0.206439 -0.00388774 0
0.194805 -0.00664615 0
0.203832 0.000252043 0
0.183625 -0.0102588 0
0.190713 -0.00812324 0
0.165442 -0.0133685 0
0.205051 -0.00226869 0
0.103114 -0.010267 0
0.203808 -0.000721857 0
0.202176 -0.00650862 0
0.179971 -0.0117131 0
0.191351 -0.00864268 0
0.205772 -0.00471261 0
0.201932 0.00095034 0
0.206113 -0.00658215 0
0.203768 -0.00198954 0
0.201934 0.000378641 0
0.19198 -0.00917987 0
0.175988 -0.0131792 0
0.201934 -0.000329482 0
0.188116 -0.0106851 0
0.188321 -0.0108425 0
0.203719 -0.00323685 0
0.203387 -0.0083978 0
0.197751 -0.00895594 0
0.201932 -0.00122782 0
0.188625 -0.0110778 0
0.192823 -0.00993135 0
0.205416 -0.00714591 0
0.189061 -0.0114257 0
0.170584 -0.0145911 0
0.204703 -0.00627754 0
0.201923 -0.00238369 0
0.20364 -0.00483734 0
0.193642 -0.0107196 0
0.189669 -0.0119352 0
0.136416 -0.0145303 0
0.205117 -0.0100358 0
0.183606 -0.0138215 0
0.201901 -0.003878 0
0.205234 -0.00976731 0
0.165487 -0.0157371 0
0.203546 -0.00640795 0
0.204085 -0.0108773 0
0.190495 -0.0126764 0
0.194773 -0.0117916 0
0.1759 -0.0155228 0
0.204905 -0.0100869 0
0.201856 -0.005804 0
0 0 0
0.203401 -0.00838966 0
0.200705 -0.0123641 0
0.199712 -0.00403749 0
0.191578 -0.0137492 0
0.195879 -0.012921 0
0.199714 -0.00434326 0
0.199716 -0.00464693 0
0.0556428 -0.00625502 0
0.187839 -0.0151258 0
0.199718 -0.00501848 0
0.2041 -0.0111085 0
0.187935 -0.015208 0
0.18803 -0.0152907 0
0.199719 -0.00538741 0
0.204 -0.0133554 0
0.188166 -0.0154132 0
0.201767 -0.00826468 0
0.20323 -0.0103285 0
0.19972 -0.00585012 0
0.188302 -0.0155366 0
0.204315 -0.0129267 0
0.188497 -0.0157169 0
0.19972 -0.00630939 0
0.188689 -0.0158992 0
0.197184 -0.0144944 0
0.199719 -0.00689558 0
0.192919 -0.0153031 0
0.188959 -0.0161621 0
0.179671 -0.0174571 0
0.102983 -0.0116313 0
0.199716 -0.00747711 0
0.175658 -0.0178697 0
0.189225 -0.0164287 0
0.1653 -0.0181269 0
0.199709 -0.00822645 0
0.189591 -0.0168085 0
0.202973 -0.012728 0
0.183254 -0.0178955 0
0.185413 -0.0176446 0
0.199699 -0.00896922 0
0.189948 -0.0171955 0
0.201599 -0.0113652 0
0.198335 -0.0161704 0
0.199681 -0.00992827 0
0.203338 -0.0164484 0
0.190426 -0.01774 0
0.20349 -0.0162898 0
0.170157 -0.0193646 0
0.194538 -0.0175367 0
0.202235 -0.0171319 0
0.199659 -0.0108778 0
0.190884 -0.0182983 0
0.202672 -0.015069 0
0.203089 -0.0167906 0
0.199621 -0.0120986 0
0.191475 -0.0190721 0
0.199414 -0.0184446 0
0.175232 -0.0203886 0
0.196879 -0.00985962 0
0.201293 -0.0152031 0
0.187075 -0.0201507 0
0.199575 -0.0133054 0
0.19688 -0.0105291 0
0.187234 -0.02032 0
0.192029 -0.0198686 0
0.187468 -0.0205724 0
0.164908 -0.0205402 0
0.196879 -0.0113214 0
0.202234 -0.0179079 0
0.202548 -0.01953 0
0.187801 -0.0209439 0
0.1995 -0.0148422 0
0.196873 -0.0122859 0
0.192712 -0.0209536 0
0.196319 -0.0207239 0
0.188263 -0.0214844 0
0.182512 -0.021957 0
0.200104 -0.0208277 0
0.196858 -0.0134848 0
0.199411 -0.0163583 0
0.188882 -0.0222629 0
0.193347 -0.0220742 0
0.201725 -0.020671 0
0.196829 -0.0149947 0
0.174646 -0.0229094 0
0.200754 -0.0198589 0
0.199272 -0.0182633 0
0.18968 -0.0233739 0
0.102486 -0.0129211 0
0.135424 -0.0186326 0
0.201256 -0.0232957 0
0.194093 -0.0235896 0
0.178366 -0.0239108 0
0.196773 -0.0169057 0
0.201459 -0.0233244 0
0.200259 -0.0238937 0
0.164299 -0.0229706 0
0.199108 -0.0201383 0
0.190663 -0.0249458 0
0.20101 -0.0239536 0
0.18586 -0.0251118 0
0.193553 -0.0157308 0
0.185931 -0.0251989 0
0.186002 -0.0252863 0
0.194738 -0.0251685 0
0.169017 -0.0242296 0
0.193555 -0.0161006 0
0.197762 -0.0251905 0
0.186106 -0.0254156 0
0.19667 -0.0193189 0
0.186209 -0.0255455 0
0.193556 -0.016469 0
0.186357 -0.025735 0
0.193556 -0.0168985 0
0.186503 -0.0259258 0
0.198862 -0.0224568 0
0.193556 -0.0173262 0
0.186707 -0.0262001 0
0.193554 -0.0178385 0
0.186909 -0.0264771 0
0.173825 -0.0256202 0
0.193551 -0.0183487 0
0.181273 -0.0265215 0
0.199831 -0.0269672 0
0.187184 -0.0268696 0
0.199842 -0.0253851 0
0.193545 -0.0189739 0
0.191791 -0.0271512 0
0.187452 -0.0272675 0
0.195391 -0.0272757 0
0.196482 -0.0223414 0
0.193537 -0.0195961 0
0.198572 -0.0247327 0
0.200188 -0.0271443 0
0.183121 -0.0273209 0
0 0 0
0.187808 -0.0278236 0
0.193524 -0.0203713 0
0.163495 -0.0254185 0
0.18815 -0.0283895 0
0.193506 -0.0211423 0
0.193479 -0.0221117 0
0.188588 -0.02917 0
0.195844 -0.029478 0
0.198154 -0.0274964 0
0.193445 -0.023075 0
0.196154 -0.0260781 0
0.189 -0.0299691 0
0.192923 -0.0302283 0
0.198964 -0.0307223 0
0.172843 -0.0283285 0
0.193394 -0.0242889 0
0.199075 -0.0308721 0
0.197973 -0.0311526 0
0.101571 -0.0144064 0
0.189506 -0.0310563 0
0.184009 -0.0306296 0
0.193332 -0.0254936 0
0.184136 -0.0308073 0
0.197669 -0.0302035 0
0.184319 -0.0310715 0
0.189254 -0.0226137 0
0.196086 -0.0323447 0
0.198361 -0.0318069 0
0.184578 -0.0314589 0
0.189959 -0.0321771 0
0.193239 -0.027006 0
0.189254 -0.0234521 0
0.179607 -0.0310495 0
0.162495 -0.0278752 0
0.184936 -0.0320196 0
0.18925 -0.0244026 0
0.167189 -0.0291769 0
0.195594 -0.030621 0
0.175791 -0.0310802 0
0.19313 -0.0285044 0
0.185413 -0.0328215 0
0.19047 -0.0336827 0
0.189237 -0.0255098 0
0.197824 -0.0345076 0
0.193754 -0.0344792 0
0.196991 -0.0334286 0
0.189212 -0.0268309 0
0.186022 -0.0339562 0
0.171577 -0.0312361 0
0.196002 -0.0353248 0
0.192969 -0.0303692 0
0.190889 -0.0352417 0
0.133263 -0.0229565 0
0.189166 -0.0284365 0
0.192782 -0.0322131 0
0.186756 -0.0355463 0
0.0541699 -0.00730452 0
0.196216 -0.0365853 0
0.189085 -0.030411 0
0.161316 -0.030342 0
0.191282 -0.0373028 0
0.194677 -0.0360389 0
0.192512 -0.0344786 0
0.196191 -0.038693 0
0.181673 -0.0360407 0
0.181729 -0.0361315 0
0.181783 -0.0362226 0
0.181865 -0.0363573 0
0.195377 -0.0390604 0
0.181946 -0.0364924 0
0.187564 -0.0377559 0
0.196084 -0.0391415 0
0.182064 -0.0366892 0
0.188948 -0.0328502 0
0.18218 -0.036887 0
0.182342 -0.0371708 0
0.177321 -0.0360129 0
0.170148 -0.0341315 0
0.184414 -0.0297353 0
0.191514 -0.0394402 0
0.182501 -0.0374568 0
0.100271 -0.0157223 0
0.192201 -0.0367137 0
0.184415 -0.0302107 0
0.193727 -0.040212 0
0.182717 -0.0378609 0
0.184414 -0.0306852 0
0.19517 -0.0402783 0
0.182927 -0.0382694 0
0.184411 -0.0312135 0
0.184406 -0.0317407 0
0.183205 -0.038838 0
0.188718 -0.0358577 0
0.184399 -0.0323431 0
0.178595 -0.037876 0
0.18347 -0.0394149 0
0.184389 -0.0329441 0
0.188321 -0.0407953 0
0.191766 -0.0394171 0
0.164693 -0.0341905 0
0.184374 -0.0336476 0
0.159972 -0.0328047 0
0.194409 -0.042846 0
0.191569 -0.0422025 0
0.183806 -0.0402064 0
0.184357 -0.0343491 0
0.193235 -0.0423718 0
0.184118 -0.0410126 0
0.184331 -0.0351871 0
0.193995 -0.0438969 0
0 0 0
0.1843 -0.0360224 0
0.188342 -0.039537 0
0.191271 -0.0420778 0
0.184493 -0.0421028 0
0.184257 -0.0370352 0
0.168386 -0.0372218 0
0.191364 -0.0450467 0
0.184206 -0.0380438 0
0.184823 -0.0432172 0
0.171734 -0.0388783 0
0.188782 -0.0449174 0
0.184134 -0.0392775 0
0.178587 -0.0418818 0
0.178693 -0.0420647 0
0.178844 -0.0423362 0
0.174609 -0.0408857 0
0.190596 -0.0452397 0
0.185185 -0.0447013 0
0.192814 -0.0474644 0
0.179057 -0.0427332 0
0.184051 -0.0405046 0
0.192234 -0.0475928 0