# vtk DataFile Version 3.0
File generated from DClib
ASCII

DATASET UNSTRUCTURED_GRID
POINTS 1909 float
50 0 0 
48.75 0 0 
50 1.66667 0 
47.5 0 0 
50 3.33333 0 
46.25 0 0 
50 5 0 
45 0 0 
43.75 0 0 
50 6.66667 0 
43 2 0 
42.5 0 0 
50 8.33333 0 
43 4.66667 0 
41.25 0 0 
41.075 2 0 
50 10 0 
40 0 0 
43 7.33333 0 
39.15 2 0 
38.75 0 0 
43 10 0 
37.5 0 0 
37.225 2 0 
36.25 0 0 
36 4 0 
35.3 2 0 
36 5 0 
35 0 0 
35.325 4 0 
36 6 0 
36 7 0 
34.65 4 0 
36 8 0 
33.75 0 0 
33.975 4 0 
36 9 0 
33.375 2 0 
33.3 4 0 
36 10 0 
32.5 0 0 
32.625 4 0 
33 6 0 
31.95 4 0 
33 7.45455 0 
31.45 2 0 
31.25 0 0 
31.95 6 0 
33 8.79545 0 
31.275 4 0 
33 10 0 
30.6 4 0 
30 0 0 
30.9 6 0 
29.925 4 0 
29.525 2 0 
29.85 6 0 
29.25 4 0 
28.75 0 0 
30 8 0 
30 8.45455 0 
28.575 4 0 
29.625 8 0 
30 8.90909 0 
28.8 6 0 
30 9.25 0 
29.782 8.90909 0 
30 9.59091 0 
29.9487 9.59091 0 
29.25 8 0 
29.7462 9.25 0 
30 9.79545 0 
29.897 9.59091 0 
29.564 8.90909 0 
29.9547 9.79545 0 
29.3462 8.45455 0 
29.84 9.59091 0 
30 10 0 
29.8975 9.79545 0 
29.9882 10 0 
29.9902 10.0098 0 
29.7827 9.59091 0 
29.9765 10 0 
29.9804 10.0196 0 
29.9667 10.0098 0 
29.9591 10 0 
29.9686 10.0196 0 
29.9659 10.0341 0 
29.9569 10.0196 0 
29.9418 10 0 
29.9395 10.0196 0 
29.9515 10.0485 0 
29.932 10.0098 0 
29.9424 10.0341 0 
29.8241 9.79545 0 
29.7181 9.59091 0 
29.9166 10 0 
29.9397 10.0485 0 
29.9222 10.0196 0 
29.9279 10.0485 0 
29.9305 10.0695 0 
29.8914 10 0 
29.9077 10.0341 0 
27.9 4 0 
29.897 10.0196 0 
29.9106 10.0485 0 
29.8817 10.0098 0 
29.907 10.0695 0 
29.8933 10.0485 0 
29.9095 10.0905 0 
29.8719 10.0196 0 
27.6 2 0 
29.8556 10 0 
29.8978 10.0905 0 
29.6531 9.59091 0 
29.3437 8.90909 0 
27.5 0 0 
29.8681 10.0485 0 
29.886 10.0905 0 
29.8574 10.0341 0 
29.4839 9.25 0 
29.8723 10.0695 0 
29.7289 9.79545 0 
29.836 10.0196 0 
29.8687 10.0905 0 
29.8197 10 0 
29.8797 10.1203 0 
29.843 10.0485 0 
29.8513 10.0905 0 
29.81 10.0098 0 
29.8561 10.1203 0 
29.8002 10.0196 0 
29.8221 10.0695 0 
29.8072 10.0485 0 
29.8262 10.0905 0 
29.5782 9.59091 0 
29.8498 10.1502 0 
29.7695 10 0 
29.7858 10.0341 0 
29.838 10.1502 0 
29.8215 10.1203 0 
29.8011 10.0905 0 
29.8262 10.1502 0 
29.7714 10.0485 0 
28.875 8 0 
29.75 10.0196 0 
29.8089 10.1502 0 
29.7654 10.0905 0 
29.7193 10 0 
29.7916 10.1502 0 
29.7505 10.0695 0 
29.8079 10.1921 0 
29.7713 10.1203 0 
29.7096 10.0098 0 
29.6047 9.79545 0 
29.503 9.59091 0 
29.7213 10.0485 0 
29.7665 10.1502 0 
29.6999 10.0196 0 
29.7844 10.1921 0 
29.7296 10.0905 0 
29.6856 10.0341 0 
29.7414 10.1502 0 
29.7497 10.1921 0 
29.6503 10 0 
29.7661 10.2339 0 
29.6712 10.0485 0 
29.6999 10.1203 0 
29.7543 10.2339 0 
29.6796 10.0905 0 
29.7057 10.1502 0 
29.7425 10.2339 0 
29.1235 8.90909 0 
29.6309 10.0196 0 
29.6504 10.0695 0 
29.4146 9.59091 0 
29.7252 10.2339 0 
29.6996 10.1921 0 
29.6701 10.1502 0 
29.7079 10.2339 0 
29.6296 10.0905 0 
29.5813 10 0 
29.6023 10.0485 0 
29.5716 10.0098 0 
29.6828 10.2339 0 
29.7086 10.2914 0 
29.2101 9.25 0 
29.562 10.0196 0 
29.6201 10.1502 0 
29.6578 10.2339 0 
29.4428 9.79545 0 
29.5999 10.1203 0 
29.6849 10.2914 0 
29.6283 10.1921 0 
29.5477 10.0341 0 
29.3259 9.59091 0 
29.5608 10.0905 0 
29.5335 10.0485 0 
29.6221 10.2339 0 
29.6503 10.2914 0 
29.5702 10.1502 0 
29.4881 10 0 
29.5128 10.0695 0 
29.6511 10.3489 0 
29.5866 10.2339 0 
29.6392 10.3489 0 
29.4689 10.0196 0 
29.6002 10.2914 0 
29.6273 10.3489 0 
29.4921 10.0905 0 
29.61 10.3489 0 
29.5286 10.1921 0 
29.5016 10.1502 0 
29.5368 10.2339 0 
29.5926 10.3489 0 
29.4405 10.0485 0 
29.2199 9.59091 0 
29.4626 10.1203 0 
29.3949 10 0 
28.9 8.90909 0 
29.5676 10.3489 0 
29.5291 10.2914 0 
29.3853 10.0098 0 
28.6923 8.45455 0 
29.487 10.2339 0 
29.5426 10.3489 0 
29.3758 10.0196 0 
29.5734 10.4266 0 
29.4331 10.1502 0 
29.3993 10.0905 0 
28.5 8 0 
29.3617 10.0341 0 
29.5496 10.4266 0 
29.5071 10.3489 0 
29.2327 9.79545 0 
29.3475 10.0485 0 
29.1136 9.59091 0 
29.4187 10.2339 0 
29.5148 10.4266 0 
29.4716 10.3489 0 
29.3918 10.1921 0 
29.3271 10.0695 0 
29.4298 10.2914 0 
29.2714 10 0 
29.3406 10.1502 0 
28.9208 9.25 0 
29.3066 10.0905 0 
29.4648 10.4266 0 
29.422 10.3489 0 
29.4958 10.5042 0 
29.2524 10.0196 0 
27.75 6 0 
29.3504 10.2339 0 
29.4837 10.5042 0 
29.4718 10.5042 0 
29.2774 10.1203 0 
29.4543 10.5042 0 
29.3724 10.3489 0 
29.2244 10.0485 0 
29.4369 10.5042 0 
29.3938 10.4266 0 
28.9853 9.59091 0 
29.2481 10.1502 0 
28.6766 8.90909 0 
29.4119 10.5042 0 
29.2934 10.2914 0 
27.225 4 0 
29.148 10 0 
29.2582 10.2339 0 
29.1837 10.0905 0 
29.3869 10.5042 0 
29.1385 10.0098 0 
29.3044 10.3489 0 
29.1291 10.0196 0 
29.2072 10.1921 0 
29.3514 10.5042 0 
29.1152 10.0341 0 
29.3929 10.6071 0 
29.2949 10.4266 0 
29.1013 10.0485 0 
29.3686 10.6071 0 
29.316 10.5042 0 
29.2364 10.3489 0 
28.9623 9.79545 0 
29.1257 10.1502 0 
29.1662 10.2339 0 
29.0811 10.0695 0 
28.8566 9.59091 0 
29.3336 10.6071 0 
29.2666 10.5042 0 
29.0609 10.0905 0 
28.9875 10 0 
29.2835 10.6071 0 
29.1448 10.3489 0 
29.0321 10.1203 0 
29.2173 10.5042 0 
29.1098 10.2914 0 
28.125 8 0 
28.9688 10.0196 0 
29.1594 10.4266 0 
28.611 9.25 0 
29.29 10.71 0 
28.4486 8.90909 0 
29.0443 10.2339 0 
29.0033 10.1502 0 
29.2777 10.71 0 
28.9413 10.0485 0 
29.2128 10.6071 0 
29.2655 10.71 0 
29.1497 10.5042 0 
29.2478 10.71 0 
28.7003 9.59091 0 
29.0533 10.3489 0 
29.2303 10.71 0 
28.9629 10.1921 0 
28.9013 10.0905 0 
29.2051 10.71 0 
29.0822 10.5042 0 
29.1801 10.71 0 
28.827 10 0 
29.1144 10.6071 0 
28.8177 10.0098 0 
28.9225 10.2339 0 
28.8085 10.0196 0 
29.1447 10.71 0 
28.7949 10.0341 0 
28.8443 10.1502 0 
28.977 10.4266 0 
28.9322 10.3489 0 
29.1094 10.71 0 
28.7813 10.0485 0 
28.9912 10.5042 0 
29.1562 10.8438 0 
28.5436 9.59091 0 
28.7615 10.0695 0 
28.8669 10.2914 0 
29.1313 10.8438 0 
28.6184 9.79545 0 
29.0602 10.71 0 
28.2207 8.90909 0 
28.7418 10.0905 0 
28.0378 8.45455 0 
28.9798 10.6071 0 
29.0958 10.8438 0 
29.0112 10.71 0 
28.9005 10.5042 0 
28.7136 10.1203 0 
28.7644 10.2339 0 
28.8113 10.3489 0 
29.0454 10.8438 0 
28.6223 10 0 
28.6854 10.1502 0 
28.2746 9.25 0 
28.9441 10.71 0 
28.6042 10.0196 0 
27.75 8 0 
28.9747 10.8438 0 
28.6459 10.1921 0 
28.5773 10.0485 0 
29.0225 10.9775 0 
28.3532 9.59091 0 
28.7804 10.5042 0 
28.736 10.4266 0 
28.8772 10.71 0 
29.0097 10.9775 0 
28.9971 10.9775 0 
28.799 10.6071 0 
28.9791 10.9775 0 
28.5384 10.0905 0 
28.6064 10.2339 0 
28.6543 10.3489 0 
28.9611 10.9775 0 
28.8769 10.8438 0 
27.9867 8.90909 0 
26.25 0 0 
28.9358 10.9775 0 
28.7871 10.71 0 
28.9106 10.9775 0 
28.6607 10.5042 0 
28.4177 10 0 
26.55 4 0 
28.552 10.2914 0 
28.483 10.1502 0 
28.4087 10.0098 0 
28.8751 10.9775 0 
28.3998 10.0196 0 
28.3866 10.0341 0 
28.8399 10.9775 0 
28.6974 10.71 0 
28.3735 10.0485 0 
28.1625 9.59091 0 
28.7436 10.8438 0 
28.4976 10.3489 0 
28.3543 10.0695 0 
28.791 10.9775 0 
28.4052 10.2339 0 
28.3352 10.0905 0 
28.8519 11.1481 0 
28.1869 9.79545 0 
28.5607 10.6071 0 
28.5053 10.5042 0 
28.7423 10.9775 0 
28.8258 11.1481 0 
28.308 10.1203 0 
28.5787 10.71 0 
27.904 9.25 0 
28.7893 11.1481 0 
28.424 10.4266 0 
27.7528 8.90909 0 
28.2807 10.1502 0 
28.6758 10.9775 0 
27.375 8 0 
28.7383 11.1481 0 
28.1619 10 0 
28.5649 10.8438 0 
28.2425 10.1921 0 
28.6096 10.9775 0 
28.1444 10.0196 0 
28.298 10.3489 0 
28.4605 10.71 0 
26.7 6 0 
27.9315 9.59091 0 
28.3503 10.5042 0 
28.6676 11.1481 0 
28.1187 10.0485 0 
28.2042 10.2339 0 
28.5207 10.9775 0 
28.0813 10.0905 0 
28.6814 11.3186 0 
27.3818 8.45455 0 
28.6679 11.3186 0 
28.1516 10.2914 0 
28.5703 11.1481 0 
28.6544 11.3186 0 
28.6358 11.3186 0 
27.5109 8.90909 0 
28.3072 10.71 0 
28.6173 11.3186 0 
28.2524 10.6071 0 
28.4322 10.9775 0 
28.028 10.1502 0 
28.5915 11.3186 0 
28.0989 10.3489 0 
28.33 10.8438 0 
28.5658 11.3186 0 
28.153 10.5042 0 
27.9061 10 0 
27.8975 10.0098 0 
28.5303 11.3186 0 
28.4384 11.1481 0 
27.7002 9.59091 0 
27.889 10.0196 0 
27.8765 10.0341 0 
28.4949 11.3186 0 
28.3154 10.9775 0 
27.9532 10.2339 0 
27.8639 10.0485 0 
28.0276 10.4266 0 
28.1544 10.71 0 
27.8457 10.0695 0 
27.4909 9.25 0 
28.4463 11.3186 0 
27 8 0 
27.8275 10.0905 0 
28.3979 11.3186 0 
27.8015 10.1203 0 
27.6542 9.79545 0 
25.675 2 0 
28.1991 10.9775 0 
27.2691 8.90909 0 
27.9563 10.5042 0 
28.4682 11.5318 0 
28.2625 11.1481 0 
27.7755 10.1502 0 
28.3322 11.3186 0 
27.8502 10.3489 0 
28.4401 11.5318 0 
25.875 4 0 
27.7391 10.1921 0 
28.4019 11.5318 0 
28.0268 10.8438 0 
28.2668 11.3186 0 
27.9602 10.71 0 
28.3498 11.5318 0 
27.4223 9.59091 0 
27.7026 10.2339 0 
27.5927 10 0 
28.0486 10.9775 0 
27.8616 10.6071 0 
27.5762 10.0196 0 
28.1794 11.3186 0 
28.2786 11.5318 0 
27.5519 10.0485 0 
27.6524 10.2914 0 
28.0319 11.1481 0 
27.7108 10.5042 0 
27.5167 10.0905 0 
27.0169 8.90909 0 
28.0924 11.3186 0 
27.6021 10.3489 0 
27.8988 10.9775 0 
28.1818 11.5318 0 
27.7667 10.71 0 
26.625 8 0 
28.255 11.745 0 
27.4664 10.1502 0 
28.2402 11.745 0 
28.2256 11.745 0 
28.2059 11.745 0 
27.978 11.3186 0 
26.7234 8.45455 0 
27.0259 9.25 0 
27.5342 10.4266 0 
28.1863 11.745 0 
27.1442 9.59091 0 
28.0516 11.5318 0 
28.1598 11.745 0 
27.3959 10.2339 0 
28.1334 11.745 0 
27.2793 10 0 
27.2714 10.0098 0 
27.2635 10.0196 0 
27.7086 10.9775 0 
27.6431 10.8438 0 
28.0975 11.745 0 
27.8643 11.3186 0 
27.4661 10.5042 0 
27.2518 10.0341 0 
27.2401 10.0485 0 
28.0617 11.745 0 
26.7648 8.90909 0 
27.5255 10.71 0 
27.7353 11.1481 0 
27.2231 10.0695 0 
28.0133 11.745 0 
27.2061 10.0905 0 
27.8791 11.5318 0 
27.2986 10.3489 0 
27.1818 10.1203 0 
27.9651 11.745 0 
27.3758 10.6071 0 
27.0077 9.79545 0 
27.7174 11.3186 0 
27.1576 10.1502 0 
25 0 0 
27.5193 10.9775 0 
27.9003 11.745 0 
27.1236 10.1921 0 
26.25 8 0 
27.9939 12.0061 0 
25.65 6 0 
27.8359 11.745 0 
26.8136 9.59091 0 
27.0896 10.2339 0 
27.9626 12.0061 0 
27.2853 10.71 0 
25.2 4 0 
27.5713 11.3186 0 
27.9218 12.0061 0 
26.4998 8.90909 0 
27.167 10.5042 0 
27.6541 11.5318 0 
27.0427 10.2914 0 
27.7503 11.745 0 
26.9033 10 0 
27.8677 12.0061 0 
26.8882 10.0196 0 
26.8659 10.0485 0 
26.9958 10.3489 0 
27.2836 10.9775 0 
27.6652 11.745 0 
27.3609 11.1481 0 
27.7955 12.0061 0 
26.499 9.25 0 
[...]
POINT_DATA 1909
SCALARS phi float 1
LOOKUP_TABLE default
VECTORS Displacement float
0 0 0
0 0 0
0 -0.00104372 0
0 0 0
0 -0.000445931 0
0 0 0
0 0.00161075 0
0 0 0
0 0 0
0 0.00499261 0
0.00949341 -0.000438167 0
0 0 0
0 0.00956444 0
0.0181535 0.00326828 0
0 0 0
0.0127522 -0.000435313 0
0 0.0150855 0
0 0 0
0.0242209 0.0107519 0
0.0162089 -0.000503779 0
0 0 0
0.0277068 0.0206202 0
0 0 0
0.0197646 -0.0006818 0
0 0 0
0.037107 0.00229134 0
0.0232216 -0.000949386 0
0.0442818 0.00509885 0
0 0 0
0.0397757 0.00208588 0
0.0494849 0.00872193 0
0.0531287 0.0128866 0
0.0422788 0.00187258 0
0.0556868 0.0172281 0
0 0 0
0.0447316 0.00155203 0
0.0573749 0.0216825 0
0.0264081 -0.0012821 0
0.0470517 0.00121122 0
0.0584013 0.026096 0
0 0 0
0.0492439 0.000815706 0
0.0639744 0.00720709 0
0.0512975 0.000398221 0
0.0708709 0.0139393 0
0.0291979 -0.00166709 0
0 0 0
0.0689395 0.00526095 0
0.0742453 0.0216503 0
0.0532046 -5.46897e-05 0
0.0746419 0.0295413 0
0.0549587 -0.000529899 0
0 0 0
0.0728801 0.00352703 0
0.0565622 -0.0010321 0
0.0314922 -0.00210466 0
0.0761683 0.00177181 0
0.0580037 -0.00156157 0
0 0 0
0.0897841 0.00766128 0
0.0923928 0.00953375 0
0.0592912 -0.00211371 0
0.0913643 0.00640773 0
0.0949847 0.0116709 0
0.0788698 -6.22676e-05 0
0.0965446 0.013779 0
0.0962013 0.0105942 0
0.0977489 0.0164073 0
0.0981416 0.0156152 0
0.0927437 0.00519791 0
0.0980279 0.0120394 0
0.0979202 0.0189457 0
0.0985193 0.0150235 0
0.097282 0.00952647 0
0.0982928 0.01789 0
0.0953413 0.00693061 0
0.0988792 0.0144794 0
0.0977012 0.0219086 0
0.0988082 0.0169139 0
0.0978863 0.021985 0
0.110073 0.0263701 0
0.0992158 0.0139867 0
0.0980945 0.0219901 0
0.115996 0.0282309 0
0.10972 0.0261029 0
0.0983988 0.0218494 0
0.115633 0.0279981 0
0.116665 0.0280741 0
0.115217 0.0276781 0
0.0987176 0.0216964 0
0.114571 0.0271646 0
0.116654 0.027774 0
0.109211 0.0253519 0
0.116366 0.0275038 0
0.0995096 0.0160336 0
0.0995685 0.0134906 0
0.0991542 0.0212575 0
0.116636 0.0274989 0
0.113912 0.0266223 0
0.116615 0.0272229 0
0.116705 0.0273596 0
0.0995801 0.0208335 0
0.115654 0.0265918 0
0.060408 -0.00270295 0
0.113123 0.0257696 0
0.116538 0.0268235 0
0.108692 0.0239823 0
0.116654 0.0268022 0
0.116413 0.0263905 0
0.116633 0.0269007 0
0.112423 0.0249669 0
0.0331933 -0.00260386 0
0.100141 0.0201342 0
0.116606 0.026613 0
0.0999128 0.0130457 0
0.0982802 0.00852064 0
0 0 0
0.116156 0.0257263 0
0.116576 0.0263173 0
0.114555 0.0251294 0
0.0993434 0.0105345 0
0.116557 0.025921 0
0.100379 0.0151512 0
0.111671 0.0238375 0
0.116526 0.0258665 0
0.100659 0.0194842 0
0.11658 0.026231 0
0.115797 0.0250481 0
0.116482 0.0254134 0
0.108252 0.0220999 0
0.116519 0.0256181 0
0.111062 0.0228319 0
0.116281 0.0246107 0
0.115254 0.0240677 0
0.116413 0.0247664 0
0.100329 0.012598 0
0.11654 0.0255336 0
0.101314 0.0186222 0
0.113198 0.0231063 0
0.116503 0.0252229 0
0.116427 0.0247199 0
0.116348 0.0241405 0
0.116467 0.0249154 0
0.114665 0.023143 0
0.0940533 0.0039996 0
0.110436 0.0215529 0
0.116415 0.0244706 0
0.116219 0.0233057 0
0.101895 0.0178277 0
0.116365 0.0240389 0
0.115631 0.0228721 0
0.116512 0.0245622 0
0.116307 0.0234968 0
0.107953 0.0199126 0
0.101386 0.0141916 0
0.100745 0.0121764 0
0.113896 0.0219283 0
0.116297 0.0234362 0
0.110009 0.020451 0
0.116445 0.0239678 0
0.116047 0.0225199 0
0.111798 0.0207316 0
0.116233 0.0228662 0
0.116352 0.0231394 0
0.102598 0.0169022 0
0.116507 0.023632 0
0.113195 0.0208388 0
0.116141 0.0219567 0
0.116474 0.0233465 0
0.115737 0.021507 0
0.116153 0.0221034 0
0.116442 0.0230691 0
0.0991879 0.0075596 0
0.109586 0.0191489 0
0.114526 0.0207666 0
0.101242 0.0117161 0
0.116397 0.0226734 0
0.116228 0.0220447 0
0.11609 0.0214019 0
0.116354 0.0222938 0
0.115345 0.0205713 0
0.103203 0.0160398 0
0.112387 0.0195061 0
0.107834 0.0176271 0
0.116296 0.0217703 0
0.116542 0.0224404 0
0.100635 0.00920483 0
0.109359 0.0180287 0
0.116 0.0205059 0
0.116241 0.0212757 0
0.102521 0.0131156 0
0.115791 0.0201438 0
0.116486 0.0219284 0
0.11608 0.0206832 0
0.110645 0.0182347 0
0.10174 0.0112677 0
0.114765 0.0194019 0
0.111764 0.0183499 0
0.116169 0.0206164 0
0.11641 0.0212264 0
0.11591 0.0196931 0
0.103919 0.0151168 0
0.113133 0.0184065 0
0.116564 0.0213445 0
0.1161 0.0200031 0
0.116542 0.0211096 0
0.109113 0.0167752 0
0.116308 0.0203003 0
0.116521 0.0208812 0
0.114166 0.0183475 0
0.116491 0.0205559 0
0.115927 0.019078 0
0.115734 0.0186918 0
0.116013 0.0192093 0
0.116462 0.0202424 0
0.111121 0.0170286 0
0.102318 0.0107444 0
0.115033 0.0181018 0
0.104534 0.0142451 0
0.100057 0.00663077 0
0.116421 0.019808 0
0.116181 0.01913 0
0.107888 0.0153829 0
0.0977506 0.00456552 0
0.115937 0.0184876 0
0.116382 0.019394 0
0.109031 0.0156816 0
0.116654 0.0200205 0
0.115492 0.0177861 0
0.113422 0.0170905 0
0.0952337 0.00278632 0
0.109904 0.0158094 0
0.116616 0.0196045 0
0.116328 0.0188371 0
0.103792 0.011875 0
0.110705 0.0158946 0
0.102893 0.0102251 0
0.115848 0.0175913 0
0.116563 0.0190312 0
0.116277 0.0183147 0
0.115715 0.0172888 0
0.111826 0.0159792 0
0.116028 0.0177298 0
0.105281 0.0133462 0
0.115096 0.0167086 0
0.101926 0.00789674 0
0.112803 0.0159962 0
0.116494 0.0182672 0
0.116208 0.0176394 0
0.116751 0.0188162 0
0.108952 0.0144994 0
0.0809747 -0.00199237 0
0.115779 0.0168002 0
0.116736 0.0186264 0
0.116721 0.0184412 0
0.113882 0.0159116 0
0.1167 0.0181779 0
0.116145 0.017022 0
0.110346 0.0146596 0
0.116679 0.0179232 0
0.116408 0.0172962 0
0.103549 0.00959803 0
0.114648 0.0157433 0
0.100885 0.0057132 0
0.11665 0.0175706 0
0.115872 0.0161712 0
0.0613631 -0.00331182 0
0.105954 0.0124754 0
0.115668 0.0158679 0
0.112166 0.0147472 0
0.116623 0.0172348 0
0.108207 0.0132255 0
0.116067 0.0162598 0
0.109035 0.013434 0
0.115246 0.015407 0
0.116585 0.0167841 0
0.109642 0.0135113 0
0.116939 0.0173959 0
0.116309 0.0161383 0
0.110197 0.0135614 0
0.116917 0.0170643 0
0.116552 0.0163651 0
0.116002 0.0155832 0
0.105231 0.0103918 0
0.114077 0.0145997 0
0.115542 0.0150374 0
0.110999 0.0136168 0
0.104191 0.00896838 0
0.116887 0.0166119 0
0.116511 0.0158238 0
0.111759 0.0136415 0
0.106803 0.0115222 0
0.11685 0.0160161 0
0.115936 0.0147631 0
0.112743 0.0136239 0
0.116478 0.015332 0
0.115727 0.014517 0
0.0963269 0.0015534 0
0.109185 0.0122376 0
0.116208 0.014841 0
0.103215 0.00651801 0
0.117101 0.0161227 0
0.101682 0.00478009 0
0.115318 0.0140354 0
0.11358 0.0135459 0
0.117094 0.015977 0
0.110163 0.012319 0
0.116805 0.0152689 0
0.117088 0.015836 0
0.116443 0.0147145 0
0.11708 0.0156369 0
0.104914 0.00819665 0
0.115881 0.0140166 0
0.117073 0.0154463 0
0.114446 0.013344 0
0.111447 0.0123441 0
0.117064 0.0151844 0
0.116414 0.0141432 0
0.117057 0.0149365 0
0.107599 0.0105813 0
0.116758 0.0143693 0
0.10889 0.010986 0
0.115031 0.0130745 0
0.10943 0.011101 0
0.11705 0.0146048 0
0.109851 0.0111285 0
0.113084 0.0122475 0
0.116108 0.0133615 0
0.115805 0.0130792 0
0.117043 0.0142905 0
0.110241 0.01114 0
0.116384 0.013421 0
0.117453 0.0147286 0
0.105601 0.00741611 0
0.110791 0.0111428 0
0.11548 0.0126357 0
0.117447 0.0144865 0
0.10684 0.00855447 0
0.11704 0.0138781 0
0.102431 0.00384133 0
0.111322 0.0111298 0
0.0997199 0.00214689 0
0.116716 0.0132775 0
0.117438 0.0141614 0
0.117036 0.0134806 0
0.11635 0.0127233 0
0.112054 0.0110875 0
0.114659 0.0118529 0
0.115725 0.0121723 0
0.117431 0.0137296 0
0.108548 0.00940573 0
0.112745 0.0110163 0
0.104479 0.00500391 0
0.117029 0.0129568 0
0.109777 0.00970917 0
0.0972851 0.000303655 0
0.117426 0.0131591 0
0.11359 0.0108612 0
0.110448 0.00970898 0
0.117762 0.0135153 0
0.106368 0.00645782 0
0.116303 0.0118222 0
0.115986 0.0115515 0
0.117021 0.0124445 0
0.117764 0.0134119 0
0.117767 0.0133105 0
0.11667 0.0119014 0
0.117771 0.0131673 0
0.111331 0.0096507 0
0.114293 0.010654 0
0.115591 0.0110242 0
0.117774 0.0130263 0
0.117424 0.0124035 0
0.103143 0.00286884 0
0 0 0
0.117778 0.0128291 0
0.117009 0.0117668 0
0.117783 0.0126344 0
0.116251 0.0109435 0
0.109415 0.00821995 0
0.0621361 -0.003973 0
0.114985 0.010297 0
0.112508 0.00949524 0
0.109903 0.00833049 0
0.117787 0.0123647 0
0.11019 0.00835895 0
0.110468 0.00834408 0
0.117791 0.0120978 0
0.116997 0.0111021 0
0.110731 0.00832105 0
0.107073 0.0054852 0
0.117423 0.0114032 0
0.115433 0.00989033 0
0.111102 0.0082791 0
0.117796 0.0117321 0
0.113933 0.0091489 0
0.111464 0.00822871 0
0.118239 0.0121726 0
0.108542 0.00621923 0
0.116605 0.0101547 0
0.11618 0.00982059 0
0.117801 0.0113705 0
0.118241 0.0119758 0
0.111965 0.00814384 0
0.116981 0.0102371 0
0.105689 0.0032984 0
0.118244 0.0117034 0
0.115797 0.00929932 0
0.103793 0.00188148 0
0.11245 0.00804512 0
0.117808 0.0108809 0
0.0981293 -0.000966152 0
0.118249 0.011326 0
0.110351 0.00670418 0
0.117424 0.0100973 0
0.1131 0.00788381 0
0.117816 0.0103982 0
0.110745 0.00670679 0
0.115219 0.00845952 0
0.116965 0.00938838 0
0.0824624 -0.00404246 0
0.107845 0.00429513 0
0.116112 0.00871716 0
0.118259 0.0108067 0
0.111177 0.00664035 0
0.113706 0.0076966 0
0.117826 0.00975666 0
0.111759 0.00651333 0
0.118627 0.0108949 0
0.101317 -0.000326815 0
0.118629 0.0107971 0
0.11443 0.00739627 0
0.118274 0.0101009 0
0.11863 0.0107001 0
0.118633 0.0105657 0
0.104399 0.000846756 0
0.116945 0.00830355 0
0.118636 0.0104321 0
0.116523 0.00796616 0
0.117837 0.00912451 0
0.112561 0.00629897 0
0.11864 0.0102468 0
0.115008 0.0070506 0
0.117428 0.00842387 0
0.118644 0.0100629 0
0.116021 0.00733884 0
0.111134 0.00517076 0
0.111249 0.00514109 0
0.118651 0.00980842 0
0.118296 0.00915728 0
0.108524 0.00308484 0
0.111364 0.0051106 0
0.111529 0.00506366 0
0.118657 0.00955605 0
0.117851 0.0082995 0
0.11361 0.00593747 0
0.111694 0.00501498 0
0.115539 0.00652482 0
0.116929 0.00723965 0
0.11193 0.00494125 0
0.106804 0.00134592 0
0.118667 0.00921024 0
0.098841 -0.00225685 0
0.112164 0.00486413 0
0.118677 0.00886738 0
0.112499 0.0047524 0
0.110149 0.00326017 0
0.034183 -0.00317356 0
0.117866 0.00748716 0
0.10493 -0.000206305 0
0.115941 0.00598299 0
0.11905 0.00935639 0
0.118329 0.00791653 0
0.112826 0.00463306 0
0.118691 0.008404 0
0.114836 0.00533231 0
0.119052 0.00915806 0
0.0627328 -0.00464774 0
0.113276 0.00445772 0
0.119055 0.00889006 0
0.117439 0.00632172 0
0.118705 0.00794459 0
0.11691 0.00591088 0
0.119061 0.00852425 0
0.109229 0.00161255 0
0.113704 0.00426744 0
0.11188 0.00329835 0
0.117885 0.00644746 0
0.11644 0.00528472 0
0.112065 0.00322884 0
0.118725 0.00733268 0
0.11907 0.00802488 0
0.112338 0.0031219 0
0.114262 0.00398351 0
0.11837 0.00631407 0
0.115868 0.00433878 0
0.112728 0.00295729 0
0.105409 -0.00132001 0
0.118743 0.00672617 0
0.114776 0.00367425 0
0.117902 0.00542468 0
0.119084 0.0073472 0
0.116901 0.00460952 0
0.0994385 -0.00358121 0
0.119272 0.00784946 0
0.113269 0.00270235 0
0.119274 0.00774694 0
0.119276 0.00764511 0
0.119278 0.00750806 0
0.118766 0.00593143 0
0.102494 -0.00290477 0
0.107765 -0.000913118 0
0.115341 0.00321129 0
0.119281 0.00737177 0
0.109807 0.000114972 0
0.119105 0.00643654 0
0.119285 0.00718654 0
0.113984 0.00230496 0
0.119289 0.00700212 0
0.11243 0.00138327 0
0.112514 0.00134383 0
0.112597 0.00130392 0
0.117914 0.004141 0
0.11744 0.00374431 0
0.119294 0.00675076 0
0.118784 0.00514358 0
0.115827 0.0027352 0
0.112716 0.00124412 0
0.112834 0.00118328 0
0.1193 0.00650027 0
0.105805 -0.00245233 0
0.116881 0.00302292 0
0.118404 0.0042827 0
0.113003 0.00109311 0
0.119307 0.00615997 0
0.113168 0.00100069 0
0.11913 0.00522872 0
0.114857 0.00168954 0
0.113398 0.000865455 0
0.119315 0.00582062 0
0.116365 0.00209871 0
0.111429 -0.000429921 0
0.118801 0.00412857 0
0.113623 0.000725849 0
0 0 0
0.117909 0.00287421 0
0.119324 0.00536328 0
0.113927 0.000523734 0
0.0999 -0.00493053 0
0.119355 0.00600876 0
0.0833049 -0.00623801 0
0.119332 0.00490694 0
0.110327 -0.00169302 0
0.114218 0.000313868 0
0.119357 0.00578727 0
0.116841 0.00145509 0
0.0631306 -0.0053964 0
0.118806 0.0031204 0
0.119359 0.00549797 0
0.106136 -0.00365967 0
0.115806 0.000779785 0
0.119148 0.00364994 0
0.114596 1.40825e-05 0
0.11934 0.00429908 0
0.112883 -0.000930829 0
0.119362 0.00511272 0
0.113018 -0.00101676 0
0.113215 -0.00114652 0
0.11495 -0.000297049 0
0.11788 0.0012965 0
0.119346 0.00369213 0
0.118389 0.0017389 0
0.119365 0.00459489 0
0.108481 -0.00354243 0
0.113493 -0.00134074 0
0.117368 0.000600944 0
0.118795 0.00183925 0
0.115391 -0.000734233 0
0.119369 0.00389784 0
0.119348 0.00289471 0
0.113875 -0.00162936 0
0.116784 -0.000490291 0
0.106379 -0.00488456 0
0.103214 -0.00560452 0
0.11067 -0.00352732 0
0.119134 0.00161411 0
0.115791 -0.00118734 0
0.100239 -0.00631535 0
0.119133 0.00411787 0
0.114376 -0.00205526 0
0.119343 0.00209766 0
0.119134 0.00399592 0
0.119369 0.00296382 0
0.117811 -0.000280181 0
0.119135 0.00387451 0
0.118758 0.000560717 0
0.119137 0.00371803 0
0.119138 0.00356208 0
0.11914 0.00335702 0
0.11312 -0.0032528 0
0.116269 -0.00180849 0
0.11318 -0.0032988 0
0.113239 -0.00334512 0
0.119141 0.00315242 0
0.113325 -0.00341388 0
0.115002 -0.00267772 0
0.119326 0.00106572 0
0.11341 -0.00348329 0
0.119142 0.00288028 0
0.113531 -0.00358504 0
0.119359 0.0017231 0
0.119143 0.00260849 0
0.11365 -0.0036881 0
0.113816 -0.0038372 0
0.106539 -0.00619944 0
0.116688 -0.00245334 0
0.119144 0.00224563 0
0.118249 -0.00144533 0
0.118683 -0.00104631 0
0.113979 -0.00398884 0
0.119294 3.27343e-05 0
0.119143 0.00188291 0
0.117696 -0.00224438 0
0.112027 -0.00494928 0
0.114199 -0.00420538 0
0.11904 -0.000980801 0
0.115739 -0.00357473 0
0.11914 0.00139995 0
0.110865 -0.00570017 0
0.114412 -0.00442659 0
0.100437 -0.00772655 0
0.119324 9.38909e-05 0
0.0633294 -0.00614236 0
0.119134 0.000916793 0
0.117151 -0.00332303 0
0.108827 -0.00660339 0
0.114691 -0.00473823 0
0.119235 -0.00128423 0
0.118536 0.00174812 0
0.118568 -0.00266063 0
0.119124 0.000278278 0
0.118538 0.00146901 0
0.114956 -0.00505829 0
0.106605 -0.0075301 0
0.118539 0.00111985 0
0.113171 -0.00597546 0
0.113271 -0.00607188 0
0.119108 -0.000360883 0
0.117531 -0.00422576 0
0.116532 -0.00484888 0
0.118538 0.000671805 0
0.113417 -0.00621601 0
0.115291 -0.0055033 0
0.119152 -0.00260445 0
0.113623 -0.0064289 0
0.103465 -0.00842487 0
0.119233 -0.00201605 0
0.118535 8.72007e-05 0
0.119082 -0.00119619 0
0.1156 -0.00596248 0
0.113904 -0.00673998 0
0.0834723 -0.00860257 0
0.118385 -0.00465897 0
0.110855 -0.0078851 0
0.118525 -0.000681928 0
0.118793 -0.00425038 0
0.100508 -0.00916932 0
0.119048 -0.00203258 0
0.117899 -0.00542193 0
0.114277 -0.00719022 0
0.115969 -0.0065914 0
0.106569 -0.00896485 0
0.119016 -0.00425919 0
0.118504 -0.00169497 0
0 0 0
0.118991 -0.00311039 0
0.117277 -0.00663086 0
0.117588 -0.000771044 0
0.114745 -0.00783614 0
0.116293 -0.00724253 0
0.117589 -0.000931517 0
0.11759 -0.00109147 0
0.0343212 -0.00380792 0
0.112995 -0.00868826 0
0.11759 -0.00128753 0
0.11904 -0.00470495 0
0.113039 -0.00873841 0
0.113083 -0.00878877 0
0.11759 -0.00148306 0
0.118149 -0.00666774 0
0.113147 -0.00886339 0
0.118459 -0.00302295 0
0.118921 -0.00418935 0
0.117589 -0.0017293 0
0.11321 -0.00893847 0
0.118845 -0.0059185 0
0.1133 -0.00904812 0
0.117587 -0.00197501 0
0.113389 -0.00915874 0
0.116652 -0.00812037 0
0.117584 -0.00229037 0
0.115298 -0.00875458 0
0.113514 -0.00931802 0
0.10866 -0.0101379 0
0.0633035 -0.00698915 0
0.11758 -0.00260521 0
0.106432 -0.0104122 0
0.113635 -0.00947923 0
0.100435 -0.0106367 0
0.117574 -0.00301373 0
0.113799 -0.0097081 0
0.118813 -0.00555693 0
0.11062 -0.0104093 0
0.111745 -0.0102512 0
0.117565 -0.00342174 0
0.113958 -0.0099407 0
0.118373 -0.00474724 0
0.11694 -0.00903213 0
0.117551 -0.00395301 0
0.118299 -0.00829257 0
0.114167 -0.0102664 0
0.118589 -0.00795473 0
0.103245 -0.0113564 0
0.115892 -0.0100477 0
0.1178 -0.00908738 0
0.117534 -0.00448372 0
0.114364 -0.0105989 0
0.118683 -0.00692453 0
0.118673 -0.00806587 0
0.117508 -0.00517286 0
0.114613 -0.0110583 0
0.117208 -0.0102406 0
0.106175 -0.0119746 0
0.116053 -0.00392847 0
0.118214 -0.00695589 0
0.112537 -0.011796 0
0.117476 -0.00586124 0
0.116054 -0.00430392 0
0.112613 -0.0118995 0
0.114841 -0.0115293 0
0.112723 -0.0120537 0
0.100235 -0.0121299 0
0.116053 -0.00475137 0
0.11849 -0.00862516 0
0.118282 -0.00999035 0
0.112878 -0.0122801 0
0.117427 -0.00674813 0
0.116049 -0.00529984 0
0.115113 -0.0121711 0
0.116433 -0.0118474 0
0.11309 -0.0126086 0
0.110153 -0.0129294 0
0.11737 -0.0114985 0
0.116039 -0.0059871 0
0.11737 -0.0076336 0
0.113368 -0.01308 0
0.115349 -0.0128323 0
0.118263 -0.0103219 0
0.116019 -0.00686074 0
0.105813 -0.0135439 0
0.117935 -0.00973625 0
0.117284 -0.00876088 0
0.113716 -0.0137494 0
0.0630509 -0.0077962 0
0.0829362 -0.0111503 0
0.117844 -0.0124242 0
0.115603 -0.0137198 0
0.107852 -0.0141519 0
0.115981 -0.00797886 0
0.118039 -0.0121649 0
0.117427 -0.0131357 0
0.0998959 -0.0136418 0
0.117184 -0.00988511 0
0.114122 -0.014691 0
0.11794 -0.012386 0
0.111814 -0.0148691 0
0.11416 -0.00730224 0
0.111847 -0.0149223 0
0.11188 -0.0149756 0
0.115798 -0.0146377 0
0.102569 -0.0143829 0
0.11416 -0.00752069 0
0.116761 -0.0143179 0
0.111929 -0.0150545 0
0.115911 -0.00940962 0
0.111977 -0.0151338 0
0.11416 -0.00773867 0
0.112046 -0.0152494 0
0.114159 -0.00799271 0
0.112113 -0.0153657 0
0.117039 -0.0112945 0
0.114157 -0.00824622 0
0.112207 -0.0155327 0
0.114154 -0.0085504 0
0.112299 -0.0157012 0
0.105309 -0.0152362 0
0.11415 -0.00885394 0
0.109386 -0.0157667 0
0.117331 -0.0148411 0
0.112423 -0.0159397 0
0.117467 -0.0131633 0
0.114143 -0.00922689 0
0.114546 -0.0160025 0
0.112542 -0.016181 0
0.115963 -0.0158496 0
0.11579 -0.0112292 0
0.114135 -0.00959901 0
0.116872 -0.0126975 0
0.117569 -0.0144374 0
0.110345 -0.0162531 0
0 0 0
0.112699 -0.0165176 0
0.114123 -0.010064 0
0.0994341 -0.0151728 0
0.112845 -0.0168596 0
0.114108 -0.010528 0
0.114087 -0.0111135 0
0.113029 -0.0173297 0
0.116036 -0.0171061 0
0.116635 -0.0144243 0
0.114061 -0.0116973 0
0.115584 -0.0135173 0
0.113195 -0.0178094 0
0.114907 -0.0178096 0
0.11701 -0.0170161 0
0.104703 -0.0169269 0
0.114023 -0.0124363 0
0.117059 -0.016872 0
0.116631 -0.0176527 0
0.0625369 -0.00872706 0
0.11339 -0.0184594 0
0.110709 -0.0182893 0
0.11398 -0.0131727 0
0.110769 -0.0183975 0
0.116367 -0.0161382 0
0.110854 -0.0185582 0
0.11152 -0.0114331 0
0.116001 -0.0187349 0
0.11672 -0.0172832 0
0.110974 -0.0187936 0
0.113555 -0.0191255 0
0.113916 -0.0141019 0
0.111521 -0.0119435 0
0.108369 -0.0185787 0
0.0988472 -0.0167124 0
0.111137 -0.0191337 0
0.111518 -0.0125238 0
0.101462 -0.0174812 0
0.115248 -0.0163493 0
0.106276 -0.018619 0
0.113844 -0.0150269 0
0.111351 -0.0196187 0
0.113725 -0.0200146 0
0.11151 -0.0132015 0
0.11648 -0.0192783 0
0.115058 -0.0202672 0
0.115998 -0.0182038 0
0.111494 -0.0140124 0
0.111614 -0.0203025 0
0.103929 -0.018743 0
0.115828 -0.0204244 0
0.113739 -0.0161845 0
0.113846 -0.0209291 0
0.0816716 -0.0138606 0
0.111464 -0.0150012 0
0.113621 -0.017335 0
0.111916 -0.0212557 0
0.0334851 -0.00446805 0
0.115583 -0.0202457 0
0.111413 -0.0162218 0
0.0981464 -0.0182618 0
0.113928 -0.0221302 0
0.114717 -0.0197854 0
0.113455 -0.0187568 0
0.115714 -0.0220593 0
0.109319 -0.0216369 0
0.109345 -0.0216919 0
0.10937 -0.0217471 0
0.109409 -0.0218285 0
0.115438 -0.0225693 0
0.109447 -0.0219103 0
0.11222 -0.0225703 0
0.115581 -0.0220961 0
0.109501 -0.0220293 0
0.111326 -0.0177367 0
0.109555 -0.0221489 0
0.10963 -0.0223202 0
0.106987 -0.0216581 0
0.103058 -0.0205481 0
0.108556 -0.0158078 0
0.113931 -0.0233689 0
0.109703 -0.0224927 0
0.0617803 -0.00955486 0
0.113268 -0.0201666 0
0.108556 -0.0161028 0
0.114778 -0.0235539 0
0.109801 -0.0227362 0
0.108555 -0.0163974 0
0.115029 -0.0226494 0
0.109895 -0.022982 0
0.108552 -0.0167253 0
0.108549 -0.0170526 0
0.110017 -0.0233235 0
0.111182 -0.0196141 0
0.108543 -0.0174269 0
0.107622 -0.0227924 0
0.110131 -0.0236694 0
0.108536 -0.0178005 0
0.112453 -0.0243624 0
0.11301 -0.0218809 0
0.0999516 -0.0206225 0
0.108525 -0.0182381 0
0.0973412 -0.0198064 0
0.114857 -0.0247896 0
0.113824 -0.0249665 0
0.110273 -0.0241428 0
0.108513 -0.0186748 0
0.11391 -0.0238563 0
0.110401 -0.0246237 0
0.108496 -0.0191971 0
0.114414 -0.0250133 0
0 0 0
0.108475 -0.0197179 0
0.110953 -0.0219239 0
0.112722 -0.0235753 0
0.110547 -0.0252722 0
0.108447 -0.0203503 0
0.101991 -0.0224729 0
0.113598 -0.0266151 0
0.108414 -0.0209805 0
0.110668 -0.0259333 0
0.103825 -0.0234673 0
0.112485 -0.026773 0