# vtk DataFile Version 3.0
File generated from DClib
ASCII

DATASET UNSTRUCTURED_GRID
POINTS 1909 float
50 0 0 
48.75 0 0 
50 1.66667 0 
47.5 0 0 
50 3.33333 0 
46.25 0 0 
50 5 0 
45 0 0 
43.75 0 0 
50 6.66667 0 
43 2 0 
42.5 0 0 
50 8.33333 0 
43 4.66667 0 
41.25 0 0 
41.075 2 0 
50 10 0 
40 0 0 
43 7.33333 0 
39.15 2 0 
38.75 0 0 
43 10 0 
37.5 0 0 
37.225 2 0 
36.25 0 0 
36 4 0 
35.3 2 0 
36 5 0 
35 0 0 
35.325 4 0 
36 6 0 
36 7 0 
34.65 4 0 
36 8 0 
33.75 0 0 
33.975 4 0 
36 9 0 
33.375 2 0 
33.3 4 0 
36 10 0 
32.5 0 0 
32.625 4 0 
33 6 0 
31.95 4 0 
33 7.45455 0 
31.45 2 0 
31.25 0 0 
31.95 6 0 
33 8.79545 0 
31.275 4 0 
33 10 0 
30.6 4 0 
30 0 0 
30.9 6 0 
29.925 4 0 
29.525 2 0 
29.85 6 0 
29.25 4 0 
28.75 0 0 
30 8 0 
30 8.45455 0 
28.575 4 0 
29.625 8 0 
30 8.90909 0 
28.8 6 0 
30 9.25 0 
29.782 8.90909 0 
30 9.59091 0 
29.9487 9.59091 0 
29.25 8 0 
29.7462 9.25 0 
30 9.79545 0 
29.897 9.59091 0 
29.564 8.90909 0 
29.9547 9.79545 0 
29.3462 8.45455 0 
29.84 9.59091 0 
30 10 0 
29.8975 9.79545 0 
29.9882 10 0 
29.9902 10.0098 0 
29.7827 9.59091 0 
29.9765 10 0 
29.9804 10.0196 0 
29.9667 10.0098 0 
29.9591 10 0 
29.9686 10.0196 0 
29.9659 10.0341 0 
29.9569 10.0196 0 
29.9418 10 0 
29.9395 10.0196 0 
29.9515 10.0485 0 
29.932 10.0098 0 
29.9424 10.0341 0 
29.8241 9.79545 0 
29.7181 9.59091 0 
29.9166 10 0 
29.9397 10.0485 0 
29.9222 10.0196 0 
29.9279 10.0485 0 
29.9305 10.0695 0 
29.8914 10 0 
29.9077 10.0341 0 
27.9 4 0 
29.897 10.0196 0 
29.9106 10.0485 0 
29.8817 10.0098 0 
29.907 10.0695 0 
29.8933 10.0485 0 
29.9095 10.0905 0 
29.8719 10.0196 0 
27.6 2 0 
29.8556 10 0 
29.8978 10.0905 0 
29.6531 9.59091 0 
29.3437 8.90909 0 
27.5 0 0 
29.8681 10.0485 0 
29.886 10.0905 0 
29.8574 10.0341 0 
29.4839 9.25 0 
29.8723 10.0695 0 
29.7289 9.79545 0 
29.836 10.0196 0 
29.8687 10.0905 0 
29.8197 10 0 
29.8797 10.1203 0 
29.843 10.0485 0 
29.8513 10.0905 0 
29.81 10.0098 0 
29.8561 10.1203 0 
29.8002 10.0196 0 
29.8221 10.0695 0 
29.8072 10.0485 0 
29.8262 10.0905 0 
29.5782 9.59091 0 
29.8498 10.1502 0 
29.7695 10 0 
29.7858 10.0341 0 
29.838 10.1502 0 
29.8215 10.1203 0 
29.8011 10.0905 0 
29.8262 10.1502 0 
29.7714 10.0485 0 
28.875 8 0 
29.75 10.0196 0 
29.8089 10.1502 0 
29.7654 10.0905 0 
29.7193 10 0 
29.7916 10.1502 0 
29.7505 10.0695 0 
29.8079 10.1921 0 
29.7713 10.1203 0 
29.7096 10.0098 0 
29.6047 9.79545 0 
29.503 9.59091 0 
29.7213 10.0485 0 
29.7665 10.1502 0 
29.6999 10.0196 0 
29.7844 10.1921 0 
29.7296 10.0905 0 
29.6856 10.0341 0 
29.7414 10.1502 0 
29.7497 10.1921 0 
29.6503 10 0 
29.7661 10.2339 0 
29.6712 10.0485 0 
29.6999 10.1203 0 
29.7543 10.2339 0 
29.6796 10.0905 0 
29.7057 10.1502 0 
29.7425 10.2339 0 
29.1235 8.90909 0 
29.6309 10.0196 0 
29.6504 10.0695 0 
29.4146 9.59091 0 
29.7252 10.2339 0 
29.6996 10.1921 0 
29.6701 10.1502 0 
29.7079 10.2339 0 
29.6296 10.0905 0 
29.5813 10 0 
29.6023 10.0485 0 
29.5716 10.0098 0 
29.6828 10.2339 0 
29.7086 10.2914 0 
29.2101 9.25 0 
29.562 10.0196 0 
29.6201 10.1502 0 
29.6578 10.2339 0 
29.4428 9.79545 0 
29.5999 10.1203 0 
29.6849 10.2914 0 
29.6283 10.1921 0 
29.5477 10.0341 0 
29.3259 9.59091 0 
29.5608 10.0905 0 
29.5335 10.0485 0 
29.6221 10.2339 0 
29.6503 10.2914 0 
29.5702 10.1502 0 
29.4881 10 0 
29.5128 10.0695 0 
29.6511 10.3489 0 
29.5866 10.2339 0 
29.6392 10.3489 0 
29.4689 10.0196 0 
29.6002 10.2914 0 
29.6273 10.3489 0 
29.4921 10.0905 0 
29.61 10.3489 0 
29.5286 10.1921 0 
29.5016 10.1502 0 
29.5368 10.2339 0 
29.5926 10.3489 0 
29.4405 10.0485 0 
29.2199 9.59091 0 
29.4626 10.1203 0 
29.3949 10 0 
28.9 8.90909 0 
29.5676 10.3489 0 
29.5291 10.2914 0 
29.3853 10.0098 0 
28.6923 8.45455 0 
29.487 10.2339 0 
29.5426 10.3489 0 
29.3758 10.0196 0 
29.5734 10.4266 0 
29.4331 10.1502 0 
29.3993 10.0905 0 
28.5 8 0 
29.3617 10.0341 0 
29.5496 10.4266 0 
29.5071 10.3489 0 
29.2327 9.79545 0 
29.3475 10.0485 0 
29.1136 9.59091 0 
29.4187 10.2339 0 
29.5148 10.4266 0 
29.4716 10.3489 0 
29.3918 10.1921 0 
29.3271 10.0695 0 
29.4298 10.2914 0 
29.2714 10 0 
29.3406 10.1502 0 
28.9208 9.25 0 
29.3066 10.0905 0 
29.4648 10.4266 0 
29.422 10.3489 0 
29.4958 10.5042 0 
29.2524 10.0196 0 
27.75 6 0 
29.3504 10.2339 0 
29.4837 10.5042 0 
29.4718 10.5042 0 
29.2774 10.1203 0 
29.4543 10.5042 0 
29.3724 10.3489 0 
29.2244 10.0485 0 
29.4369 10.5042 0 
29.3938 10.4266 0 
28.9853 9.59091 0 
29.2481 10.1502 0 
28.6766 8.90909 0 
29.4119 10.5042 0 
29.2934 10.2914 0 
27.225 4 0 
29.148 10 0 
29.2582 10.2339 0 
29.1837 10.0905 0 
29.3869 10.5042 0 
29.1385 10.0098 0 
29.3044 10.3489 0 
29.1291 10.0196 0 
29.2072 10.1921 0 
29.3514 10.5042 0 
29.1152 10.0341 0 
29.3929 10.6071 0 
29.2949 10.4266 0 
29.1013 10.0485 0 
29.3686 10.6071 0 
29.316 10.5042 0 
29.2364 10.3489 0 
28.9623 9.79545 0 
29.1257 10.1502 0 
29.1662 10.2339 0 
29.0811 10.0695 0 
28.8566 9.59091 0 
29.3336 10.6071 0 
29.2666 10.5042 0 
29.0609 10.0905 0 
28.9875 10 0 
29.2835 10.6071 0 
29.1448 10.3489 0 
29.0321 10.1203 0 
29.2173 10.5042 0 
29.1098 10.2914 0 
28.125 8 0 
28.9688 10.0196 0 
29.1594 10.4266 0 
28.611 9.25 0 
29.29 10.71 0 
28.4486 8.90909 0 
29.0443 10.2339 0 
29.0033 10.1502 0 
29.2777 10.71 0 
28.9413 10.0485 0 
29.2128 10.6071 0 
29.2655 10.71 0 
29.1497 10.5042 0 
29.2478 10.71 0 
28.7003 9.59091 0 
29.0533 10.3489 0 
29.2303 10.71 0 
28.9629 10.1921 0 
28.9013 10.0905 0 
29.2051 10.71 0 
29.0822 10.5042 0 
29.1801 10.71 0 
28.827 10 0 
29.1144 10.6071 0 
28.8177 10.0098 0 
28.9225 10.2339 0 
28.8085 10.0196 0 
29.1447 10.71 0 
28.7949 10.0341 0 
28.8443 10.1502 0 
28.977 10.4266 0 
28.9322 10.3489 0 
29.1094 10.71 0 
28.7813 10.0485 0 
28.9912 10.5042 0 
29.1562 10.8438 0 
28.5436 9.59091 0 
28.7615 10.0695 0 
28.8669 10.2914 0 
29.1313 10.8438 0 
28.6184 9.79545 0 
29.0602 10.71 0 
28.2207 8.90909 0 
28.7418 10.0905 0 
28.0378 8.45455 0 
28.9798 10.6071 0 
29.0958 10.8438 0 
29.0112 10.71 0 
28.9005 10.5042 0 
28.7136 10.1203 0 
28.7644 10.2339 0 
28.8113 10.3489 0 
29.0454 10.8438 0 
28.6223 10 0 
28.6854 10.1502 0 
28.2746 9.25 0 
28.9441 10.71 0 
28.6042 10.0196 0 
27.75 8 0 
28.9747 10.8438 0 
28.6459 10.1921 0 
28.5773 10.0485 0 
29.0225 10.9775 0 
28.3532 9.59091 0 
28.7804 10.5042 0 
28.736 10.4266 0 
28.8772 10.71 0 
29.0097 10.9775 0 
28.9971 10.9775 0 
28.799 10.6071 0 
28.9791 10.9775 0 
28.5384 10.0905 0 
28.6064 10.2339 0 
28.6543 10.3489 0 
28.9611 10.9775 0 
28.8769 10.8438 0 
27.9867 8.90909 0 
26.25 0 0 
28.9358 10.9775 0 
28.7871 10.71 0 
28.9106 10.9775 0 
28.6607 10.5042 0 
28.4177 10 0 
26.55 4 0 
28.552 10.2914 0 
28.483 10.1502 0 
28.4087 10.0098 0 
28.8751 10.9775 0 
28.3998 10.0196 0 
28.3866 10.0341 0 
28.8399 10.9775 0 
28.6974 10.71 0 
28.3735 10.0485 0 
28.1625 9.59091 0 
28.7436 10.8438 0 
28.4976 10.3489 0 
28.3543 10.0695 0 
28.791 10.9775 0 
28.4052 10.2339 0 
28.3352 10.0905 0 
28.8519 11.1481 0 
28.1869 9.79545 0 
28.5607 10.6071 0 
28.5053 10.5042 0 
28.7423 10.9775 0 
28.8258 11.1481 0 
28.308 10.1203 0 
28.5787 10.71 0 
27.904 9.25 0 
28.7893 11.1481 0 
28.424 10.4266 0 
27.7528 8.90909 0 
28.2807 10.1502 0 
28.6758 10.9775 0 
27.375 8 0 
28.7383 11.1481 0 
28.1619 10 0 
28.5649 10.8438 0 
28.2425 10.1921 0 
28.6096 10.9775 0 
28.1444 10.0196 0 
28.298 10.3489 0 
28.4605 10.71 0 
26.7 6 0 
27.9315 9.59091 0 
28.3503 10.5042 0 
28.6676 11.1481 0 
28.1187 10.0485 0 
28.2042 10.2339 0 
28.5207 10.9775 0 
28.0813 10.0905 0 
28.6814 11.3186 0 
27.3818 8.45455 0 
28.6679 11.3186 0 
28.1516 10.2914 0 
28.5703 11.1481 0 
28.6544 11.3186 0 
28.6358 11.3186 0 
27.5109 8.90909 0 
28.3072 10.71 0 
28.6173 11.3186 0 
28.2524 10.6071 0 
28.4322 10.9775 0 
28.028 10.1502 0 
28.5915 11.3186 0 
28.0989 10.3489 0 
28.33 10.8438 0 
28.5658 11.3186 0 
28.153 10.5042 0 
27.9061 10 0 
27.8975 10.0098 0 
28.5303 11.3186 0 
28.4384 11.1481 0 
27.7002 9.59091 0 
27.889 10.0196 0 
27.8765 10.0341 0 
28.4949 11.3186 0 
28.3154 10.9775 0 
27.9532 10.2339 0 
27.8639 10.0485 0 
28.0276 10.4266 0 
28.1544 10.71 0 
27.8457 10.0695 0 
27.4909 9.25 0 
28.4463 11.3186 0 
27 8 0 
27.8275 10.0905 0 
28.3979 11.3186 0 
27.8015 10.1203 0 
27.6542 9.79545 0 
25.675 2 0 
28.1991 10.9775 0 
27.2691 8.90909 0 
27.9563 10.5042 0 
28.4682 11.5318 0 
28.2625 11.1481 0 
27.7755 10.1502 0 
28.3322 11.3186 0 
27.8502 10.3489 0 
28.4401 11.5318 0 
25.875 4 0 
27.7391 10.1921 0 
28.4019 11.5318 0 
28.0268 10.8438 0 
28.2668 11.3186 0 
27.9602 10.71 0 
28.3498 11.5318 0 
27.4223 9.59091 0 
27.7026 10.2339 0 
27.5927 10 0 
28.0486 10.9775 0 
27.8616 10.6071 0 
27.5762 10.0196 0 
28.1794 11.3186 0 
28.2786 11.5318 0 
27.5519 10.0485 0 
27.6524 10.2914 0 
28.0319 11.1481 0 
27.7108 10.5042 0 
27.5167 10.0905 0 
27.0169 8.90909 0 
28.0924 11.3186 0 
27.6021 10.3489 0 
27.8988 10.9775 0 
28.1818 11.5318 0 
27.7667 10.71 0 
26.625 8 0 
28.255 11.745 0 
27.4664 10.1502 0 
28.2402 11.745 0 
28.2256 11.745 0 
28.2059 11.745 0 
27.978 11.3186 0 
26.7234 8.45455 0 
27.0259 9.25 0 
27.5342 10.4266 0 
28.1863 11.745 0 
27.1442 9.59091 0 
28.0516 11.5318 0 
28.1598 11.745 0 
27.3959 10.2339 0 
28.1334 11.745 0 
27.2793 10 0 
27.2714 10.0098 0 
27.2635 10.0196 0 
27.7086 10.9775 0 
27.6431 10.8438 0 
28.0975 11.745 0 
27.8643 11.3186 0 
27.4661 10.5042 0 
27.2518 10.0341 0 
27.2401 10.0485 0 
28.0617 11.745 0 
26.7648 8.90909 0 
27.5255 10.71 0 
27.7353 11.1481 0 
27.2231 10.0695 0 
28.0133 11.745 0 
27.2061 10.0905 0 
27.8791 11.5318 0 
27.2986 10.3489 0 
27.1818 10.1203 0 
27.9651 11.745 0 
27.3758 10.6071 0 
27.0077 9.79545 0 
27.7174 11.3186 0 
27.1576 10.1502 0 
25 0 0 
27.5193 10.9775 0 
27.9003 11.745 0 
27.1236 10.1921 0 
26.25 8 0 
27.9939 12.0061 0 
25.65 6 0 
27.8359 11.745 0 
26.8136 9.59091 0 
27.0896 10.2339 0 
27.9626 12.0061 0 
27.2853 10.71 0 
25.2 4 0 
27.5713 11.3186 0 
27.9218 12.0061 0 
26.4998 8.90909 0 
27.167 10.5042 0 
27.6541 11.5318 0 
27.0427 10.2914 0 
27.7503 11.745 0 
26.9033 10 0 
27.8677 12.0061 0 
26.8882 10.0196 0 
26.8659 10.0485 0 
26.9958 10.3489 0 
27.2836 10.9775 0 
27.6652 11.745 0 
27.3609 11.1481 0 
27.7955 12.0061 0 
26.499 9.25 0 
[...]
POINT_DATA 1909
SCALARS phi float 1
LOOKUP_TABLE default
VECTORS Displacement float
0 0 0
0 0 0
0 -0.000816475 0
0 0 0
0 -0.000327934 0
0 0 0
0 0.00130872 0
0 0 0
0 0 0
0 0.00396953 0
0.00752765 -0.000359972 0
0 0 0
0 0.0075806 0
0.0144385 0.00256302 0
0 0 0
0.010095 -0.000358535 0
0 0.0119658 0
0 0 0
0.0192165 0.00852647 0
0.012814 -0.000410844 0
0 0 0
0.0220501 0.0163965 0
0 0 0
0.0156101 -0.000547167 0
0 0 0
0.0293569 0.00177913 0
0.0183317 -0.000752421 0
0.0350773 0.00398491 0
0 0 0
0.0314511 0.00162092 0
0.0392639 0.00683847 0
0.0422387 0.0101215 0
0.0334145 0.0014575 0
0.0444189 0.013586 0
0 0 0
0.0353387 0.00121077 0
0.0457838 0.0171718 0
0.0208476 -0.00100879 0
0.0371596 0.000948832 0
0.0465463 0.0207051 0
0 0 0
0.0388818 0.000644478 0
0.0506007 0.00564169 0
0.0404976 0.000323153 0
0.0562057 0.0108511 0
0.0230605 -0.00130798 0
0 0 0
0.054487 0.00413219 0
0.0591309 0.0167924 0
0.0420012 -2.64296e-05 0
0.0594832 0.022737 0
0.0433881 -0.000393815 0
0 0 0
0.057573 0.00279572 0
0.0446601 -0.000784154 0
0.0248907 -0.00165176 0
0.0601568 0.00144239 0
0.0458077 -0.00119668 0
0 0 0
0.0709102 0.00602083 0
0.0729783 0.00746281 0
0.0468374 -0.00163003 0
0.0721267 0.00505954 0
0.0750362 0.00909682 0
0.0622916 1.97413e-05 0
0.0762675 0.0106461 0
0.0759628 0.00826637 0
0.0772593 0.0124525 0
0.0775502 0.0119433 0
0.073192 0.00413164 0
0.0774026 0.00932107 0
0.0774285 0.0139048 0
0.0778167 0.0115241 0
0.0767713 0.00743731 0
0.0777002 0.0132289 0
0.0752456 0.00546116 0
0.0780721 0.0111042 0
0.0771766 0.0155098 0
0.0780788 0.0126246 0
0.077304 0.0155168 0
0.0844654 0.0180966 0
0.0783109 0.0107297 0
0.0774486 0.0154932 0
0.0874783 0.0189938 0
0.0842632 0.0178732 0
0.0776468 0.0153559 0
0.0873004 0.0188388 0
0.0877823 0.0188567 0
0.0870902 0.0186324 0
0.0778517 0.0152067 0
0.0867721 0.0182939 0
0.0877631 0.018642 0
0.0840072 0.0173248 0
0.087653 0.0184739 0
0.0785704 0.0120264 0
0.0785722 0.0103682 0
0.0781369 0.0149161 0
0.0877581 0.0184523 0
0.086456 0.0179507 0
0.0877528 0.018264 0
0.0878068 0.0183401 0
0.0784144 0.0146315 0
0.0873246 0.01788 0
0.0477339 -0.00209345 0
0.0860804 0.0174387 0
0.0877248 0.0179945 0
0.0837433 0.0164511 0
0.0877814 0.0179642 0
0.0876717 0.0177132 0
0.087819 0.0180264 0
0.0857526 0.0169517 0
0.0262562 -0.0020475 0
0.0787882 0.0141867 0
0.0878026 0.0178351 0
0.0788312 0.0100463 0
0.0775293 0.00667435 0
0 0 0
0.0875578 0.0172935 0
0.0877852 0.0176421 0
0.0868078 0.0169747 0
0.0783771 0.00818412 0
0.0877412 0.0173952 0
0.0791804 0.011415 0
0.0853981 0.0162725 0
0.0877576 0.0173529 0
0.0791389 0.0137793 0
0.0878828 0.0175813 0
0.0873958 0.0168691 0
0.0877346 0.0170656 0
0.0835429 0.0152777 0
0.0878452 0.017188 0
0.0851155 0.015665 0
0.0876279 0.0165722 0
0.0871496 0.0162682 0
0.0877006 0.016657 0
0.0791444 0.00972265 0
0.0879712 0.0171327 0
0.0795936 0.0132442 0
0.0861693 0.0157439 0
0.0879491 0.0169355 0
0.08779 0.0166192 0
0.0876725 0.0162635 0
0.0879276 0.016741 0
0.0868791 0.0157033 0
0.0742052 0.00321254 0
0.0848201 0.0148866 0
0.0878968 0.0164602 0
0.0876188 0.0157383 0
0.0800118 0.0127657 0
0.0878664 0.0161878 0
0.0873495 0.0154949 0
0.088098 0.0165114 0
0.0877209 0.0158478 0
0.0834446 0.0139323 0
0.0799047 0.0107587 0
0.0794577 0.00941741 0
0.0865303 0.014968 0
0.0878254 0.0158072 0
0.0846199 0.0142204 0
0.0880594 0.0161365 0
0.0875487 0.015247 0
0.0855153 0.0143112 0
0.0877865 0.0154468 0
0.0880051 0.0156136 0
0.0805517 0.0122423 0
0.0882363 0.0159185 0
0.0862116 0.01432 0
0.0876411 0.0148803 0
0.0882182 0.0157387 0
0.0874221 0.0146238 0
0.0877383 0.0149659 0
0.0882006 0.0155635 0
0.0782238 0.00594916 0
0.0844158 0.0134524 0
0.0868698 0.0142248 0
0.0798329 0.00908413 0
0.0881757 0.0153137 0
0.0879331 0.0149224 0
0.087701 0.0145293 0
0.0881518 0.0150736 0
0.0872634 0.014071 0
0.0810432 0.0117736 0
0.085847 0.0135619 0
0.0835027 0.0126071 0
0.0881194 0.0147438 0
0.0884236 0.0151516 0
0.0793573 0.00719944 0
0.084339 0.0128119 0
0.0876575 0.0139896 0
0.0880892 0.0144352 0
0.0807521 0.0100401 0
0.0875108 0.0137976 0
0.0883951 0.0148287 0
0.0878494 0.0140828 0
0.0850027 0.0128879 0
0.0802081 0.00875803 0
0.0870343 0.0134204 0
0.0855872 0.0129232 0
0.0880508 0.0140334 0
0.0883573 0.0143891 0
0.0876267 0.0135252 0
0.0816638 0.0112944 0
0.0862888 0.0129181 0
0.0886189 0.0144493 0
0.0880173 0.0136737 0
0.0886065 0.0143019 0
0.0843005 0.0121115 0
0.0883109 0.0138269 0
0.0885946 0.0141602 0
0.0868129 0.0128584 0
0.0885785 0.0139604 0
0.0877795 0.0131735 0
0.0875777 0.012986 0
0.0879809 0.0132326 0
0.0885639 0.0137725 0
0.0853631 0.0122055 0
0.0806481 0.00837848 0
0.0872665 0.0127013 0
0.0822242 0.0108286 0
0.0788971 0.00524931 0
0.0885454 0.0135185 0
0.0882624 0.0131679 0
0.0838348 0.0113638 0
0.0771076 0.00365743 0
0.0879578 0.0128525 0
0.0885308 0.013287 0
0.0843947 0.0114939 0
0.0889361 0.0136225 0
0.0875249 0.0125132 0
0.086568 0.0121895 0
0.0751237 0.0022789 0
0.0848479 0.0115405 0
0.088921 0.0133809 0
0.0885154 0.0129876 0
0.0817606 0.00921497 0
0.0852798 0.0115702 0
0.0810874 0.00799989 0
0.0879415 0.0123895 0
0.0889023 0.0130642 0
0.0885062 0.0127202 0
0.0877354 0.0122337 0
0.0858782 0.0115913 0
0.0882256 0.0124479 0
0.0829062 0.0102859 0
0.0874447 0.0119291 0
0.0803535 0.00622733 0
0.0863953 0.0115757 0
0.0888835 0.0126689 0
0.0884993 0.0123837 0
0.089229 0.012913 0
0.0845672 0.0107732 0
0.0639665 -0.00149186 0
0.0879321 0.0119665 0
0.0892265 0.0128144 0
0.0892247 0.0127203 0
0.0869596 0.0114956 0
0.0892237 0.0125889 0
0.0884955 0.0120703 0
0.0852969 0.0108153 0
0.0892234 0.0124644 0
0.0888718 0.012192 0
0.0815964 0.00754183 0
0.0873554 0.0113689 0
0.0795429 0.00455522 0
0.0892257 0.0122961 0
0.088212 0.0116137 0
0.0485047 -0.00257582 0
0.0835228 0.00973537 0
0.0879236 0.0114236 0
0.0862724 0.0108092 0
0.089228 0.0121353 0
0.0844669 0.0100297 0
0.0884973 0.0116655 0
0.084813 0.0100924 0
0.0876824 0.0111386 0
0.0892336 0.0119208 0
0.085112 0.0101028 0
0.0897266 0.0121761 0
0.0888751 0.0115995 0
0.0854102 0.0101078 0
0.089726 0.0120209 0
0.0892399 0.0117127 0
0.0885011 0.0112737 0
0.0829342 0.00817802 0
0.0872659 0.0106455 0
0.0879184 0.0108968 0
0.0858472 0.0101083 0
0.0820961 0.00707801 0
0.0897276 0.0118099 0
0.0892482 0.0114309 0
0.0862545 0.0100902 0
0.0842524 0.00905064 0
0.089733 0.0115227 0
0.088511 0.010758 0
0.0867754 0.0100352 0
0.0892578 0.0111551 0
0.08822 0.0105699 0
0.0759798 0.00132495 0
0.0851472 0.00926455 0
0.0888957 0.0108354 0
0.0813594 0.0051922 0
0.0902007 0.0115487 0
0.0801691 0.00384513 0
0.0879175 0.0102186 0
0.0872047 0.00994497 0
0.0902027 0.0114813 0
0.085636 0.00925026 0
0.0897456 0.0111311 0
0.0902047 0.0114146 0
0.089274 0.0107832 0
0.0902078 0.011319 0
0.0826701 0.00650578 0
0.0885269 0.0102554 0
0.0902112 0.0112241 0
0.087631 0.00976575 0
0.0863357 0.00920331 0
0.0902163 0.0110897 0
0.0892936 0.0104189 0
0.0902221 0.0109563 0
0.084906 0.00834526 0
0.0897718 0.010601 0
0.0853135 0.00844197 0
0.0879271 0.00955423 0
0.0855198 0.00845762 0
0.0902311 0.0107695 0
0.0857118 0.00843752 0
0.0872002 0.00906024 0
0.088946 0.00984965 0
0.0885568 0.00960448 0
0.0902412 0.0105846 0
0.085918 0.00842038 0
0.0893254 0.00993611 0
0.0908362 0.0108277 0
0.083216 0.00591923 0
0.0862204 0.00839235 0
0.0882628 0.00925396 0
0.0908386 0.0107004 0
0.0842252 0.00681517 0
0.090257 0.0103293 0
0.0807612 0.00312603 0
0.0865105 0.00835557 0
0.0786506 0.00179818 0
0.0898207 0.0098958 0
0.0908435 0.0105199 0
0.0902749 0.0100771 0
0.0893633 0.00946313 0
0.0869057 0.00828935 0
0.0879581 0.00870553 0
0.0886004 0.00896674 0
0.0908532 0.0102656 0
0.0856352 0.00745402 0
0.0872692 0.00820523 0
0.0823557 0.00404 0
0.0903021 0.00973513 0
0.0859814 0.00746885 0
0.0767358 0.000352521 0
0.0908716 0.00991164 0
0.0876927 0.00805531 0
0.0863198 0.0074159 0
0.0913978 0.0101493 0
0.0838296 0.00518961 0
0.0894229 0.00884785 0
0.0890535 0.00859693 0
0.0903324 0.00939745 0
0.0913994 0.0100877 0
0.0914012 0.0100264 0
0.0899073 0.00897397 0
0.0914043 0.00993916 0
0.0868082 0.00732676 0
0.0880204 0.00787352 0
0.0886759 0.00815694 0
0.0914077 0.00985241 0
0.0909045 0.00942615 0
0.0813252 0.0023753 0
0 0 0
0.0914132 0.00972951 0
0.0903774 0.00894708 0
0.0914194 0.00960732 0
0.0894933 0.00824399 0
0.0862659 0.00652678 0
0.0491309 -0.00310003 0
0.0884095 0.00761314 0
0.087441 0.00715741 0
0.0863687 0.00650803 0
0.0914288 0.00943596 0
0.0864723 0.00648843 0
0.0866169 0.00645654 0
0.0914395 0.00926538 0
0.0904264 0.00850224 0
0.0867595 0.00642276 0
0.0843915 0.00443893 0
0.0909605 0.00877026 0
0.0887805 0.00736392 0
0.0869657 0.00637093 0
0.0914555 0.00902914 0
0.0881585 0.0068441 0
0.0871671 0.00631491 0
0.0920516 0.00932568 0
0.0855443 0.00501195 0
0.0900483 0.00778971 0
0.0895949 0.00747374 0
0.091473 0.00879376 0
0.0920537 0.0092031 0
0.0874439 0.00622728 0
0.0904956 0.00791869 0
0.0833117 0.00272143 0
0.0920577 0.00903182 0
0.0892565 0.00703721 0
0.0818411 0.00160747 0
0.0877086 0.00613232 0
0.0914989 0.00847217 0
0.0774068 -0.000642688 0
0.0920653 0.00879162 0
0.0868909 0.00532898 0
0.0910484 0.00789735 0
0.0880483 0.00598863 0
0.0915266 0.00815136 0
0.0870536 0.00528089 0
0.0889379 0.00637759 0
0.0905671 0.00734036 0
0.0651584 -0.00311388 0
0.0849921 0.00350518 0
0.0897046 0.00671408 0
0.0920795 0.00845594 0
0.0872911 0.005205 0
0.0883613 0.00583687 0
0.0915656 0.00771952 0
0.0876239 0.00508492 0
0.0925583 0.00851988 0
0.0799129 -0.000130407 0
0.0925596 0.00845737 0
0.0887489 0.00562218 0
0.0921044 0.00799054 0
0.092561 0.00839512 0
0.0925635 0.00830826 0
0.0823201 0.000796807 0
0.0906623 0.00659038 0
0.0925662 0.00822157 0
0.0902515 0.00628281 0
0.0916055 0.00728771 0
0.0880681 0.00489521 0
0.0925703 0.00810037 0
0.0891118 0.00540247 0
0.0911732 0.00674888 0
0.0925748 0.00797916 0
0.0898523 0.00574852 0
0.0873906 0.00410538 0
0.0874638 0.00407806 0
0.0925814 0.00781019 0
0.0921444 0.00735214 0
0.0855137 0.00254734 0
0.0875359 0.00405028 0
0.0876392 0.00400845 0
0.0925886 0.00764091 0
0.091659 0.00671437 0
0.0886376 0.00460308 0
0.0877411 0.00396569 0
0.0895692 0.0050975 0
0.090753 0.00584097 0
0.0878856 0.0039021 0
0.0841834 0.00118705 0
0.092599 0.00740664 0
0.077976 -0.00166016 0
0.0880273 0.0038368 0
0.09261 0.00717149 0
0.0882241 0.00374097 0
0.0867128 0.00265702 0
0.0270577 -0.00250119 0
0.0917104 0.00613873 0
0.0827388 -3.39777e-05 0
0.0899927 0.00478216 0
0.0930405 0.00750991 0
0.092203 0.00648619 0
0.0884158 0.00364234 0
0.0926254 0.00684953 0
0.0893425 0.00417139 0
0.0930423 0.00737563 0
0.0496177 -0.00363776 0
0.0886737 0.00349954 0
0.0930451 0.00719245 0
0.091329 0.00524544 0
0.0926413 0.00652568 0
0.0908669 0.00487342 0
0.0930497 0.00693947 0
0.0860309 0.00136912 0
0.0889237 0.00335201 0
0.0878826 0.00261136 0
0.0917751 0.00538351 0
0.0905044 0.00434845 0
0.0880029 0.00255185 0
0.0926624 0.00608782 0
0.0930573 0.00658892 0
0.0881787 0.00246157 0
0.0892529 0.00314181 0
0.0922785 0.00532425 0
0.0901697 0.00354585 0
0.0884278 0.0023258 0
0.0831111 -0.000917802 0
0.092683 0.00564643 0
0.0895651 0.00292274 0
0.0918326 0.00462117 0
0.0930692 0.00610442 0
0.0909673 0.00389592 0
0.0784571 -0.00271118 0
0.0933192 0.00646223 0
0.0887705 0.00212314 0
0.0933201 0.0063888 0
0.0933211 0.00631563 0
0.0933226 0.00621705 0
0.0927086 0.00505784 0
0.0808404 -0.00216918 0
0.0849132 -0.000611381 0
0.0899611 0.0026142 0
0.0933241 0.00611863 0
0.086445 0.000169452 0
0.093086 0.00543919 0
0.0933262 0.00598434 0
0.0892252 0.00182305 0
0.0933283 0.00585002 0
0.0882621 0.00110684 0
0.0883168 0.00107504 0
0.0883713 0.00104299 0
0.0918989 0.00363346 0
0.0914961 0.00328005 0
0.0933312 0.00566593 0
0.0927313 0.00446326 0
0.0903291 0.00229213 0
0.0884502 0.000995342 0
0.0885284 0.000947171 0
0.093334 0.00548141 0
0.0834156 -0.00182089 0
0.0910838 0.0026457 0
0.0923604 0.00378173 0
0.0886401 0.000876401 0
0.0933377 0.00522905 0
0.0887504 0.000804527 0
0.0931067 0.00453459 0
0.0898002 0.00138129 0
0.0889048 0.000700231 0
0.0933411 0.0049756 0
0.0907755 0.00184604 0
0.0875818 -0.000297301 0
0.0927563 0.00368229 0
0.089056 0.000593659 0
0 0 0
0.0919515 0.00263247 0
0.0933452 0.00463135 0
0.0892623 0.000440774 0
0.0788299 -0.00378677 0
0.0934258 0.00511076 0
0.0658382 -0.0048638 0
0.0933487 0.00428499 0
0.0868085 -0.00127721 0
0.0894621 0.00028355 0
0.0934273 0.00494434 0
0.0911776 0.00137899 0
0.0499449 -0.00423409 0
0.0927744 0.00289227 0
0.0934291 0.00472584 0
0.0836637 -0.00278696 0
0.09049 0.000737055 0
0.0931254 0.00331947 0
0.0897259 6.06544e-05 0
0.0933519 0.00381947 0
0.088593 -0.000705159 0
0.0934311 0.00443332 0
0.088688 -0.000772665 0
0.0888263 -0.000873967 0
0.0899778 -0.000169651 0
0.0920012 0.0013596 0
0.0933534 0.00335043 0
0.0924247 0.00176185 0
0.0934329 0.00403766 0
0.085432 -0.00271705 0
0.089022 -0.00102435 0
0.0916363 0.000742112 0
0.0927875 0.00187266 0
0.0902987 -0.000492003 0
0.0934337 0.003501 0
0.0933524 0.00272839 0
0.089291 -0.00124564 0
0.0912581 -0.000192681 0
0.0838399 -0.0037687 0
0.0813971 -0.00432648 0
0.0870483 -0.00273731 0
0.0931279 0.00171168 0
0.090598 -0.00082701 0
0.0791052 -0.004895 0
0.0932903 0.00366718 0
0.089648 -0.00156883 0
0.0933475 0.00210118 0
0.093291 0.00357244 0
0.0934311 0.00277535 0
0.0920262 7.27837e-05 0
0.0932917 0.00347804 0
0.092787 0.000841703 0
0.0932924 0.00335643 0
0.0932929 0.00323511 0
0.0932934 0.00307541 0
0.0887902 -0.0025238 0
0.0909616 -0.00128948 0
0.0888324 -0.00255936 0
0.0888744 -0.00259512 0
0.0932937 0.00291589 0
0.0889358 -0.0026482 0
0.0901024 -0.00203752 0
0.0933349 0.00128248 0
0.0889966 -0.00270173 0
0.0932936 0.00270333 0
0.0890837 -0.00278009 0
0.09342 0.00180173 0
0.0932931 0.00249073 0
0.0891696 -0.00285936 0
0.0892899 -0.00297388 0
0.0839504 -0.00482277 0
0.0912882 -0.00177244 0
0.0932917 0.00220625 0
0.0924257 -0.000825511 0
0.0927668 -0.000460523 0
0.0894076 -0.00309019 0
0.0933146 0.000457244 0
0.0932894 0.00192135 0
0.092021 -0.00151949 0
0.0880261 -0.00386843 0
0.089568 -0.00325602 0
0.0930857 -0.000375538 0
0.0906484 -0.00271254 0
0.0932851 0.001541 0
0.0871855 -0.00445989 0
0.0897234 -0.00342526 0
0.0792658 -0.00602643 0
0.0933903 0.000510594 0
0.050113 -0.00482948 0
0.0932791 0.00115969 0
0.0916583 -0.00242931 0
0.0856617 -0.00516313 0
0.0899288 -0.00366348 0
0.0932768 -0.000600134 0
0.0928308 0.00181082 0
0.0927214 -0.00177227 0
0.0932687 0.000654326 0
0.0928321 0.00159081 0
0.0901246 -0.00390802 0
0.0839867 -0.00588789 0
0.0928328 0.00131524 0
0.0888579 -0.00466958 0
0.0889316 -0.00474434 0
0.0932554 0.000147315 0
0.0919681 -0.00311776 0
0.0912529 -0.00367707 0
0.0928324 0.000961198 0
0.0890382 -0.00485593 0
0.0903735 -0.00424791 0
0.0932246 -0.00166406 0
0.089189 -0.00502049 0
0.0815752 -0.00658906 0
0.093323 -0.00117528 0
0.0928295 0.000498614 0
0.0932334 -0.00051711 0
0.0906048 -0.0045988 0
0.0893961 -0.00526053 0
0.0659784 -0.00675311 0
0.0926293 -0.00338805 0
0.0871718 -0.00618852 0
0.0928217 -0.000110997 0
0.0929486 -0.00302023 0
0.0793226 -0.00718347 0
0.0932062 -0.00118377 0
0.0922772 -0.00403869 0
0.0896704 -0.00560737 0
0.0908838 -0.00508017 0
0.0839461 -0.00703429 0
0.0931381 -0.0029984 0
0.0928043 -0.000915474 0
0 0 0
0.0931631 -0.00204474 0
0.0918391 -0.00504148 0
0.0920989 -0.000182318 0
0.0900174 -0.00610441 0
0.0911319 -0.00557975 0
0.0920994 -0.000309767 0
0.0920997 -0.000436822 0
0.027181 -0.00300671 0
0.0887497 -0.00680873 0
0.0920997 -0.000592525 0
0.0931858 -0.00333421 0
0.088782 -0.00684763 0
0.0888141 -0.00688669 0
0.0920993 -0.000747831 0
0.0924929 -0.00500581 0
0.0888613 -0.00694458 0
0.0927691 -0.00197225 0
0.0931107 -0.00290792 0
0.0920985 -0.000943455 0
0.0889079 -0.0070028 0
0.0930264 -0.00433622 0
0.0889748 -0.00708783 0
0.0920971 -0.00113869 0
0.0890406 -0.00717357 0
0.0914083 -0.00625539 0
0.0920946 -0.00138936 0
0.09043 -0.00681123 0
0.0891325 -0.007297 0
0.085515 -0.00797053 0
0.0501009 -0.00550472 0
0.0920913 -0.00163966 0
0.0838299 -0.00818703 0
0.0892223 -0.00742188 0
0.0792633 -0.00835876 0
0.0920858 -0.00196457 0
0.0893443 -0.00759912 0
0.0930306 -0.00400332 0
0.0869918 -0.00818277 0
0.0878309 -0.00805232 0
0.0920789 -0.00228915 0
0.0894621 -0.00777918 0
0.0927023 -0.00334719 0
0.0916328 -0.00695956 0
0.0920679 -0.00271198 0
0.0926347 -0.00627541 0
0.089617 -0.0080313 0
0.0928538 -0.00597447 0
0.0813862 -0.0089352 0
0.0908771 -0.00780838 0
0.0922688 -0.00694611 0
0.0920545 -0.00313448 0
0.0897639 -0.00828863 0
0.0929349 -0.00509939 0
0.0929268 -0.00603471 0
0.0920338 -0.00368339 0
0.0899491 -0.00864415 0
0.091845 -0.00789669 0
0.083623 -0.00942923 0
0.090895 -0.00269246 0
0.0925812 -0.00511123 0
0.0884197 -0.00926169 0
0.092009 -0.00423185 0
0.090896 -0.00299102 0
0.0884764 -0.00934229 0
0.0901195 -0.00900892 0
0.0885582 -0.00946225 0
0.0791006 -0.00955205 0
0.0908955 -0.00334691 0
0.0927934 -0.00646243 0
0.0926402 -0.00760855 0
0.0886734 -0.0096384 0
0.0919714 -0.00493883 0
0.0908925 -0.00378322 0
0.0903221 -0.00950614 0
0.091289 -0.00920186 0
0.0888307 -0.00989388 0
0.0866346 -0.0101734 0
0.0919753 -0.0088758 0
0.090885 -0.00433001 0
0.0919272 -0.00564488 0
0.0890375 -0.0102603 0
0.0904985 -0.0100189 0
0.0926268 -0.0078219 0
0.0908695 -0.00502525 0
0.0833384 -0.0106736 0
0.0923706 -0.00733392 0
0.0918616 -0.00654411 0
0.0892959 -0.0107805 0
0.0499074 -0.00614796 0
0.0655576 -0.00878606 0
0.0923282 -0.00955856 0
0.0906885 -0.010708 0
0.0848857 -0.0111479 0
0.0908399 -0.00591529 0
0.0924689 -0.00932139 0
0.0920258 -0.0101549 0
0.0788276 -0.0107569 0
0.0917855 -0.00744109 0
0.089597 -0.0115124 0
0.0923886 -0.0094745 0
0.0878784 -0.0116892 0
0.0894066 -0.00537539 0
0.087903 -0.0117307 0
0.0879274 -0.0117723 0
0.0908342 -0.0114217 0
0.0808488 -0.0113444 0
0.0894069 -0.0055491 0
0.0915402 -0.0111251 0
0.0879636 -0.0118338 0
0.0907863 -0.00705456 0
0.0879994 -0.0118957 0
0.0894068 -0.00572245 0
0.0880507 -0.0119858 0
0.0894059 -0.00592446 0
0.088101 -0.0120765 0
0.0916749 -0.00856586 0
0.0894045 -0.00612606 0
0.0881711 -0.0122067 0
0.089402 -0.00636797 0
0.0882393 -0.0123381 0
0.082945 -0.0120136 0
0.0893988 -0.00660938 0
0.0860446 -0.0124153 0
0.0919547 -0.0114915 0
0.0883317 -0.012524 0
0.0920188 -0.0100735 0
0.0893938 -0.006906 0
0.0899109 -0.0125325 0
0.0884203 -0.0127122 0
0.0909563 -0.0123658 0
0.0906927 -0.0085039 0
0.0893875 -0.00720198 0
0.0915479 -0.0096855 0
0.0921122 -0.0111153 0
0.0867688 -0.012792 0
0 0 0
0.0885361 -0.0129746 0
0.089378 -0.00757189 0
0.0784571 -0.0119738 0
0.0886448 -0.0132412 0
0.0893667 -0.00794093 0
0.0893499 -0.00840669 0
0.0887805 -0.0136077 0
0.0910075 -0.0133464 0
0.0913681 -0.0110636 0
0.0893302 -0.00887119 0
0.0905347 -0.0103269 0
0.0889033 -0.0139817 0
0.0901741 -0.0139404 0
0.0917085 -0.0132004 0
0.0824724 -0.0133516 0
0.0893011 -0.00945915 0
0.0917303 -0.0130609 0
0.0914363 -0.0137352 0
0.0495053 -0.00688944 0
0.0890461 -0.0144886 0
0.0870348 -0.0143921 0
0.0892674 -0.0100451 0
0.0870796 -0.0144767 0
0.0911636 -0.0124312 0
0.0871434 -0.0146023 0
0.0873236 -0.00865925 0
0.0909738 -0.0146202 0
0.0914545 -0.0133642 0
0.0872327 -0.0147862 0
0.0891664 -0.0150082 0
0.0892185 -0.0107845 0
0.0873241 -0.0090648 0
0.0852598 -0.0146377 0
0.0779888 -0.0131948 0
0.087354 -0.0150519 0
0.0873221 -0.00952592 0
0.0799814 -0.0137995 0
0.0902766 -0.0125836 0
0.083663 -0.0146806 0
0.0891624 -0.0115207 0
0.0875121 -0.0154308 0
0.0892888 -0.0157021 0
0.087316 -0.0100645 0
0.0912939 -0.0149816 0
0.0902739 -0.0158598 0
0.0908817 -0.0140789 0
0.0873035 -0.0107089 0
0.0877068 -0.015965 0
0.0818686 -0.0147881 0
0.0908333 -0.015944 0
0.089082 -0.0124419 0
0.0893732 -0.0164163 0
0.0645593 -0.010943 0
0.0872805 -0.0114948 0
0.0889907 -0.0133576 0
0.0879282 -0.0167097 0
0.0265285 -0.00353206 0
0.0905646 -0.0157071 0
0.0872404 -0.0124651 0
0.0774318 -0.0144213 0
0.0894258 -0.0173551 0
0.0898689 -0.0153213 0
0.0888623 -0.0144892 0
0.090712 -0.0171989 0
0.085964 -0.017039 0
0.085983 -0.0170821 0
0.0860019 -0.0171252 0
0.0860305 -0.017189 0
0.0905207 -0.0176278 0
0.0860586 -0.017253 0
0.0881478 -0.017737 0
0.0905877 -0.0172034 0
0.0860994 -0.0173461 0
0.0871729 -0.0136693 0
0.0861393 -0.0174396 0
0.0861949 -0.0175737 0
0.084188 -0.0170725 0
0.081188 -0.0162155 0
0.0849783 -0.0121342 0